# vtk DataFile Version 3.0
Inflated mesh
ASCII

DATASET UNSTRUCTURED_GRID
POINTS 7319 double
 -0.14317460   0.16436255   0.06820308
 -0.14453812   0.16436255   0.06682808
 -0.14315426   0.16436255   0.06545308
 -0.14179103   0.16436255   0.06682808
 -0.14317454  -0.16535865   0.06820308
 -0.14453806  -0.16535865   0.06682808
 -0.14315420  -0.16535865   0.06545308
 -0.14179097  -0.16535865   0.06682808
 -0.08235056   0.21556970   0.11401716
 -0.08097556   0.21691006   0.11371043
 -0.08235056   0.21825041   0.11340369
 -0.08372556   0.21691006   0.11371043
 -0.08235050  -0.21603428   0.11413333
 -0.08097549  -0.21732117   0.11364902
 -0.08235050  -0.21860807   0.11316471
 -0.08372550  -0.21732117   0.11364902
 -0.08235049  -0.18911447   0.04621029
 -0.08097549  -0.19038703   0.04568953
 -0.08235049  -0.19165958   0.04516876
 -0.08372549  -0.19038703   0.04568953
 -0.08435099   0.16062535   0.02287947
 -0.08235049  -0.18743677   0.04241775
 -0.08097549  -0.18865956   0.04178896
 -0.08235049  -0.18988235   0.04116017
 -0.08421380   0.16250035   0.02100949
 -0.08372549  -0.18865956   0.04178896
 -0.08407661   0.16062535   0.01913952
 -0.08235049  -0.18543102   0.03901792
 -0.08097549  -0.18657242   0.03825122
 -0.08235049  -0.18771382   0.03748453
 -0.08421380   0.15875036   0.02100949
 -0.08372549  -0.18657242   0.03825122
 -0.08235049  -0.18311600   0.03597248
 -0.08097549  -0.18416037   0.03507809
 -0.08235049  -0.18520473   0.03418371
 -0.08372549  -0.18416037   0.03507809
 -0.08235049  -0.18052400   0.03328029
 -0.08097549  -0.18145819   0.03227136
 -0.08235049  -0.18239237   0.03126243
 -0.08372549  -0.18145819   0.03227136
 -0.08235049  -0.17768700   0.03094118
 -0.08097549  -0.17850070   0.02983280
 -0.08235049  -0.17931439   0.02872441
 -0.08372549  -0.17850070   0.02983280
 -0.08235049  -0.17463697   0.02895599
 -0.08097549  -0.17532270   0.02776418
 -0.08235049  -0.17600842   0.02657238
 -0.08372549  -0.17532270   0.02776418
 -0.08235049  -0.17140625   0.02732632
 -0.08097549  -0.17195897   0.02606730
 -0.08235050  -0.17251168   0.02480827
 -0.08372550  -0.17195897   0.02606730
 -0.08235049  -0.16802777   0.02605431
 -0.08097549  -0.16844432   0.02474392
 -0.08235050  -0.16886087   0.02343353
 -0.08372550  -0.16844432   0.02474392
 -0.08235049  -0.16453497   0.02514231
 -0.08097549  -0.16481356   0.02379583
 -0.08235050  -0.16509216   0.02244935
 -0.08372550  -0.16481356   0.02379583
 -0.08235049  -0.16046830   0.02456745
 -0.08097549  -0.16058914   0.02319861
 -0.08372550  -0.16058914   0.02319861
 -0.08235049  -0.15734209   0.02440763
 -0.08097549  -0.15734287   0.02303263
 -0.08235049  -0.15734364   0.02165763
 -0.08372550  -0.15734287   0.02303263
 -0.08235049  -0.15371056   0.02458913
 -0.08097549  -0.15357251   0.02322107
 -0.08235049  -0.15343447   0.02185302
 -0.08372550  -0.15357251   0.02322107
 -0.08235049  -0.15010141   0.02513890
 -0.08097549  -0.14982523   0.02379192
 -0.08235049  -0.14954905   0.02244495
 -0.08372550  -0.14982523   0.02379193
 -0.08235049  -0.14654880   0.02605846
 -0.08097549  -0.14613579   0.02474696
 -0.08235049  -0.14572279   0.02343545
 -0.08372550  -0.14613579   0.02474696
 -0.08235049  -0.14308657   0.02734922
 -0.08097549  -0.14253901   0.02608795
 -0.08235049  -0.14199145   0.02482668
 -0.08372550  -0.14253901   0.02608795
 -0.08235049  -0.13974811   0.02901268
 -0.08097549  -0.13906969   0.02781669
 -0.08235049  -0.13839127   0.02662071
 -0.08372550  -0.13906969   0.02781669
 -0.08235049  -0.13656636   0.03105057
 -0.08097549  -0.13576262   0.02993495
 -0.08235049  -0.13495888   0.02881932
 -0.08372549  -0.13576262   0.02993495
 -0.08235049  -0.13357393   0.03346518
 -0.08097549  -0.13265260   0.03244451
 -0.08235049  -0.13173126   0.03142383
 -0.08372549  -0.13265260   0.03244451
 -0.08235049  -0.13080312   0.03625946
 -0.08097549  -0.12977440   0.03534714
 -0.08235049  -0.12874569   0.03443482
 -0.08372549  -0.12977440   0.03534714
 -0.08235049  -0.12828644   0.03943721
 -0.08097549  -0.12716286   0.03864463
 -0.08235049  -0.12603928   0.03785206
 -0.08372549  -0.12716286   0.03864463
 -0.08235049  -0.12603809   0.04303565
 -0.08097549  -0.12485276   0.04233877
 -0.08235049  -0.12366743   0.04164188
 -0.08372549  -0.12485276   0.04233877
 -0.08235050  -0.10902883   0.07385822
 -0.08097550  -0.10788222   0.07309935
 -0.08235050  -0.10673560   0.07234048
 -0.08372550  -0.10788222   0.07309935
 -0.08235050  -0.10742752   0.07587817
 -0.08097550  -0.10649543   0.07486733
 -0.08235050  -0.10556333   0.07385648
 -0.08372550  -0.10649543   0.07486733
 -0.08235050  -0.10527207   0.07730620
 -0.08097550  -0.10469227   0.07605942
 -0.08235050  -0.10411246   0.07481264
 -0.08372550  -0.10469227   0.07605942
 -0.08235050  -0.10281371   0.07803296
 -0.08097550  -0.10260706   0.07667359
 -0.08235050  -0.10240041   0.07531420
 -0.08372550  -0.10260706   0.07667359
 -0.08235050  -0.10022046   0.07807415
 -0.08097550  -0.10037406   0.07670776
 -0.08235050  -0.10052766   0.07534137
 -0.08372550  -0.10037406   0.07670776
 -0.08235050  -0.09763767   0.07744468
 -0.08097550  -0.09812753   0.07615989
 -0.08235050  -0.09861739   0.07487511
 -0.08372550  -0.09812753   0.07615989
 -0.08235050  -0.09520720   0.07615011
 -0.08097550  -0.09600176   0.07502792
 -0.08235050  -0.09679632   0.07390574
 -0.08372550  -0.09600176   0.07502792
 -0.08235050  -0.09313868   0.07426155
 -0.08097550  -0.09413104   0.07330980
 -0.08235050  -0.09512339   0.07235805
 -0.08372550  -0.09413104   0.07330980
 -0.08235051  -0.05862660   0.03338402
 -0.08097551  -0.05965244   0.03246845
 -0.08235051  -0.06067828   0.03155287
 -0.08372551  -0.05965244   0.03246845
 -0.08235051  -0.05654697   0.03117695
 -0.08097551  -0.05749352   0.03017961
 -0.08235051  -0.05844007   0.02918228
 -0.08372551  -0.05749352   0.03017961
 -0.08235051  -0.05431609   0.02928267
 -0.08097551  -0.05514578   0.02818622
 -0.08235051  -0.05597548   0.02708976
 -0.08372551  -0.05514578   0.02818622
 -0.08235051  -0.05195020   0.02769287
 -0.08097551  -0.05264939   0.02650892
 -0.08235051  -0.05334858   0.02532495
 -0.08372551  -0.05264939   0.02650892
 -0.08235051  -0.04949157   0.02642730
 -0.08097551  -0.05004450   0.02516837
 -0.08235051  -0.05059744   0.02390945
 -0.08372551  -0.05004450   0.02516837
 -0.08235051  -0.04698287   0.02550427
 -0.08097551  -0.04737127   0.02418526
 -0.08235051  -0.04775966   0.02286625
 -0.08372551  -0.04737127   0.02418526
 -0.08235051  -0.04446649   0.02494012
 -0.08097551  -0.04466985   0.02358024
 -0.08235051  -0.04487320   0.02222036
 -0.08372551  -0.04466985   0.02358024
 -0.08235051  -0.04192778   0.02474796
 -0.08097551  -0.04198040   0.02337397
 -0.08235051  -0.04203301   0.02199998
 -0.08372551  -0.04198040   0.02337397
 -0.08235054   0.19010934   0.02474741
 -0.08097555   0.19017471   0.02337397
 -0.08235054   0.19024009   0.02200052
 -0.08372554   0.19017471   0.02337397
 -0.08235054   0.19118580   0.02484560
 -0.08097555   0.19144417   0.02349509
 -0.08235054   0.19170254   0.02214458
 -0.08372554   0.19144417   0.02349509
 -0.08235054   0.19213854   0.02512284
 -0.08097555   0.19264206   0.02384335
 -0.08235054   0.19314559   0.02256386
 -0.08372554   0.19264206   0.02384335
 -0.08235054   0.19300975   0.02556204
 -0.08097555   0.19373860   0.02439610
 -0.08235054   0.19446743   0.02323016
 -0.08372554   0.19373860   0.02439610
 -0.08235054   0.19377260   0.02614218
 -0.08097555   0.19470398   0.02513066
 -0.08235054   0.19563536   0.02411915
 -0.08372554   0.19470398   0.02513066
 -0.08235054   0.19440155   0.02684010
 -0.08097555   0.19550845   0.02602438
 -0.08235054   0.19661534   0.02520867
 -0.08372554   0.19550845   0.02602438
 -0.08235054   0.19487480   0.02763305
 -0.08097555   0.19612220   0.02705461
 -0.08235054   0.19736962   0.02647616
 -0.08372554   0.19612220   0.02705461
 -0.08235054   0.19519329   0.02857605
 -0.08097555   0.19651549   0.02819866
 -0.08235054   0.19783768   0.02782127
 -0.08372554   0.19651549   0.02819866
 -0.08435094  -0.16061436   0.02287947
 -0.08421376  -0.15873936   0.02100949
 -0.08407657  -0.16061436   0.01913952
 -0.08421376  -0.16248935   0.02100949
 -0.08350072   0.16250035   0.02100949
 -0.08350072   0.15875036   0.02100949
 -0.08235054   0.16276404   0.02200045
 -0.08097554   0.16276404   0.02337397
 -0.08372553   0.16276404   0.02337397
 -0.08235054   0.16276404   0.02474751
 -0.08372550  -0.21621357   0.11070594
 -0.08097549  -0.21621357   0.11070594
 -0.08235050  -0.21492726   0.11119175
 -0.08235049  -0.16248935   0.02100949
 -0.08244517  -0.22197714   0.11053476
 -0.08235056   0.21947530   0.10800976
 -0.08235056   0.22197774   0.11053476
 -0.08235056   0.21947530   0.11305977
 -0.08174527   0.21947530   0.11305977
 -0.08174527   0.21947530   0.10800976
 -0.08174527   0.22197774   0.11053476
 -0.08295591   0.21947530   0.10800976
 -0.08235056   0.21488288   0.11101557
 -0.08097556   0.21622263   0.11070646
 -0.08372556   0.21622263   0.11070646
 -0.08295591   0.22197774   0.11053476
 -0.08295591   0.21947530   0.11305977
 -0.08235056   0.21522630   0.11251637
 -0.08097556   0.21656635   0.11220844
 -0.08372556   0.21656635   0.11220844
 -0.08372553   0.16062535   0.02337397
 -0.08235054   0.16058181   0.02474752
 -0.08097554   0.16062535   0.02337397
 -0.08222528   0.16062535   0.01913908
 -0.08235054   0.15875036   0.02100949
 -0.08235054   0.16250035   0.02100949
 -0.08120009   0.15875036   0.02100949
 -0.08120011   0.16062535   0.01913888
 -0.08120011   0.16062540   0.02287967
 -0.08120011   0.16250035   0.02100949
 -0.08235054   0.15947343   0.02200044
 -0.08235054   0.15947324   0.02173052
 -0.08350072   0.16062535   0.02287952
 -0.08336954   0.16062535   0.01913930
 -0.08235054   0.16177714   0.02200045
 -0.08235054   0.16177736   0.02173055
 -0.08324620   0.21668990   0.11059953
 -0.08322817   0.21696496   0.11052679
 -0.08145205   0.21698542   0.11052210
 -0.08147993   0.21671425   0.11059395
 -0.08235056   0.21743438   0.10983811
[...]
CELL_DATA 22212
SCALARS cell_volume double 1
LOOKUP_TABLE default
6.22131320512615e-10
9.849657030320446e-09
8.622603080281438e-09
1.185417660642713e-08
1.3957548945480178e-09
3.731424016115474e-09
1.3123068834908205e-08
4.82057021670521e-09
1.2364476951282748e-08
7.483217784848547e-09
1.26884733516845e-08
1.09318132969009e-09
3.714605071641598e-08
1.1054497313225652e-08
4.9409197820689026e-09
6.503986500618608e-09
3.1997548547788206e-09
6.531811708522331e-10
5.860923914476411e-09
6.346350081775183e-09
7.675307900959751e-10
5.411199189078727e-09
1.9322113417703772e-08
7.675281785628626e-10
4.4723510375084784e-10
1.468325702308671e-08
6.779499022723157e-10
3.7313958240103095e-09
1.238061055459697e-08
1.1731201665017434e-08
1.116000993237057e-09
5.351532878897748e-09
9.558529028873719e-09
-2.848027747324423e-09
2.4181914965400135e-09
2.5848393692307955e-09
1.1467315969091722e-08
5.411229714967688e-09
1.1559947522938394e-08
1.1991768212902765e-09
3.5978058434516908e-09
4.786522477324783e-10
7.822897480836926e-10
3.249774052251618e-10
1.2725843798347871e-08
2.9091986409176947e-10
4.730031699335143e-10
1.2276152649314838e-08
6.2401477674207834e-09
1.0292583852144758e-07
5.462924743046193e-10
1.6628011565974427e-07
1.1854341140123934e-08
1.2364458874399336e-08
4.405732872831449e-10
1.2380534627415694e-08
6.1457079358473074e-09
9.572529678966122e-09
1.2089160587507809e-08
1.1021478686417883e-08
9.35284109082009e-09
1.1299107126996914e-08
5.658808672888849e-09
6.384557015997426e-09
3.212075150404152e-09
1.4526560365618417e-09
-2.848201019280408e-09
9.819245752991853e-09
1.0266702545310009e-08
6.301064102862675e-09
4.0165156697314836e-10
1.0232204772661052e-07
6.240147462115126e-09
5.463513513439541e-10
2.7566134948548714e-08
1.289762775441706e-08
6.417441938804188e-09
1.1467306711044513e-08
-5.50055754574821e-09
3.660565906149659e-09
5.965504564131055e-09
3.974384985876448e-09
4.637165092625814e-09
8.14713156339358e-09
8.342372131459668e-10
3.0864191876374287e-09
9.352838626777144e-09
6.249893249780088e-09
2.0253668825437443e-09
5.438159314111874e-09
2.2011900675496317e-09
9.031872277387246e-09
6.300537002190767e-09
7.884262623070079e-08
1.256096325844154e-07
6.531542404121081e-10
-7.447585383349676e-09
6.138715599825818e-09
6.3463659398362435e-09
6.296201045531145e-09
2.9124242007649475e-09
9.031958535345328e-09
4.78620619077641e-10
3.086397089749255e-09
5.562992010132197e-09
5.760688691704987e-09
1.4085633069064947e-07
2.2876066865032657e-09
6.145694572762511e-09
1.2897706152725402e-08
4.472073261871187e-10
7.961777243694678e-09
4.046381313799502e-08
2.9570159804722125e-07
-1.2359017335802777e-09
5.808963653619778e-09
3.468768783440224e-08
1.0979837111271171e-07
9.747917737716601e-09
1.0780224495653067e-10
2.8278811828320703e-08
1.1409489660493375e-08
3.9336967789621906e-09
3.809956340270565e-09
7.594239820725138e-08
1.0285598274023218e-08
1.1218129394953025e-08
9.30238941979963e-09
5.965520379445967e-09
5.37318052508725e-09
1.2415709542268364e-08
7.145369669329943e-09
3.4491969957238984e-09
2.0834261136445784e-10
5.808963653619778e-09
1.006984282194635e-08
2.0814303721497925e-09
1.023220478364986e-07
6.249885660329974e-09
2.2598300889437994e-09
1.445643959091298e-08
9.959439560840757e-09
2.7565948914252294e-08
3.764757996393945e-09
9.892503630085909e-09
7.884310423967363e-08
2.7835021476295753e-08
1.2921901920250832e-08
5.410623117290015e-09
7.323362571871844e-09
3.6605639374346286e-09
7.642611558994954e-09
5.998856389974694e-09
1.3239956393328594e-09
1.1112136685703418e-08
1.4526600263951775e-09
2.2876066865032657e-09
1.2958833700282492e-09
6.876022505836737e-08
1.4267534555959307e-10
4.406479110558526e-09
4.239465630980722e-09
8.28544001121696e-09
1.59161154388276e-09
2.593579351116423e-08
9.064707763041277e-09
-1.0505490302770264e-08
1.0266731458239018e-08
6.233243510088104e-10
1.0093119610987945e-08
8.147154496895717e-09
1.4551090796095484e-09
1.0101906902760143e-08
8.852198501454729e-09
1.3815206436971499e-09
6.533094404790643e-10
4.661442849413268e-10
1.1282259568420082e-08
4.239470033681888e-09
1.2380550448422988e-08
1.2563722661650042e-08
8.622607083367308e-09
4.553283403248747e-09
3.0864227549652627e-09
3.794662427804898e-09
4.194847246481599e-09
3.1997822408970562e-09
1.4551072971368979e-09
-3.074323566307374e-09
1.4266929612861693e-10
6.24989494459518e-09
2.8278882470121203e-08
2.2588115252402476e-09
3.944017093456839e-08
6.531129015621005e-10
7.14559023060573e-09
3.9336985361106355e-09
2.4194472511451343e-09
1.1854170783734653e-08
1.3850362064885064e-08
1.2364475749877244e-08
4.2758758683399287e-10
5.355725621878272e-09
1.2089099574284446e-08
1.2920850961716464e-08
1.0147147630093551e-08
5.817007233171248e-09
1.146729095878901e-08
6.106624554704912e-09
1.2089217970851973e-08
3.0231116235303707e-10
1.208923146948204e-08
1.022000168273611e-08
5.919986283956252e-09
1.1299151361301579e-08
3.8211915793783227e-10
2.6751985072081467e-08
4.991869212733617e-08
-7.820784846105339e-09
2.083455275909922e-10
1.3850362064885056e-08
2.083775830633281e-10
-5.869376268645427e-09
6.1457004708336486e-09
5.313030596891269e-09
2.8243242650205227e-09
1.3227694320369614e-07
1.2688595904828019e-08
4.4720977602966955e-10
1.3755129764420179e-08
5.355755071534474e-09
1.1111637903135184e-08
1.2536062080629826e-08
7.597125285879939e-08
5.499693155389201e-09
1.1054573086761613e-08
1.0078236265895706e-08
1.2592016653828844e-08
1.2364458874399355e-08
4.6371839762245134e-09
9.861022428238431e-09
3.6689132174507267e-09
3.383497959485167e-10
5.860955539042343e-09
1.2921353261020997e-08
1.2921413206495437e-08
3.3573961281498968e-09
5.154668695121058e-10
1.121818356168759e-08
2.9237951057116895e-10
-7.820786685334489e-09
3.730611014742606e-10
1.2592020909803514e-08
1.1218178739143122e-08
1.518488348552172e-08
3.4325937182180045e-09
-4.544341271425997e-09
5.808963653619784e-09
5.7414438499700254e-09
6.145407611085431e-09
5.741443849732634e-09
1.1021502951949166e-08
5.7045645452281775e-08
5.9403362544204336e-09
5.4895056522595856e-09
1.1111935244097956e-08
9.74791773771661e-09
1.2364532959189645e-08
5.325429526839655e-09
5.3731805250872514e-09
1.1021484750787853e-08
6.809404399898393e-09
7.439470534075537e-09
1.4266908060654298e-10
2.2876154717572917e-09
6.2401474621151245e-09
1.4551385184988498e-09
1.1161164927322265e-08
1.3123068834908208e-08
9.946022541062394e-09
3.3834845865832203e-10
1.385034928548488e-08
4.553272066918269e-09
5.817003569794033e-09
3.7305100137309353e-10
1.0417645842932304e-07
1.1998885172505498e-09
1.5329636396447238e-08
3.2497535599988924e-10
2.287609740869763e-09
2.8276676617931753e-09
1.2276097804637801e-08
3.904987124730119e-09
7.597124629878446e-08
5.4105762307908935e-09
6.779523083571876e-10
3.383339437520796e-10
9.35280974150567e-09
5.41120755529706e-09
6.779597477744011e-10
6.271836814364331e-09
3.7971717924120036e-08
5.860866995399046e-09
3.383326064854968e-10
4.4725587395420676e-10
2.9124866341958747e-09
1.1157731958334547e-08
1.0146975952511896e-08
3.383571533165717e-10
2.2875602218531485e-09
2.786318140081847e-09
5.154677288878091e-10
2.6456226221571815e-07
5.20309882765224e-10
6.531253500253838e-10
5.373208489755961e-09
-5.857794716098963e-09
1.0069803770836992e-08
3.383558159422233e-10
1.426702364992184e-10
3.249763425633397e-10
1.2899841088115667e-08
3.4325888431719256e-09
9.353261316109855e-09
7.330831761896289e-08
7.884288395717636e-08
1.4267536858796213e-10
2.9146552287667866e-09
1.384716628193888e-08
6.452871164144188e-09
7.962172260572933e-09
1.0780446195643867e-10
5.489519105332648e-09
3.908811430585206e-08
6.33774692727963e-09
3.7313198556244955e-09
1.0780318069707869e-10
1.452656308352623e-09
5.421435845723672e-09
3.0863970976561936e-09
3.794681477696984e-09
7.642755316705605e-09
9.959406354516166e-09
4.472477704136752e-10
3.1997620593857375e-09
1.3755161461349213e-08
1.0299681148764406e-10
9.514051310944716e-09
8.402500548911738e-09
1.0780329401723968e-10
2.908992732124097e-10
3.905001291701602e-09
4.0585441235855245e-09
1.4526530526739708e-09
4.621644147321435e-09
7.86373396046255e-08
1.3174635200309596e-08
3.730525300874874e-10
-5.857030529072907e-09
2.6454632508744644e-07
1.2959654212323573e-09
7.73319356167263e-09
2.5047058182421487e-08
1.0301167544683356e-10
2.7835129025046307e-08
5.3135224606346314e-09
4.472557895568866e-10
-8.47549322442225e-09
1.445682661388388e-08
4.613312335768743e-10
3.3876032073518133e-09
3.5978223607536067e-09
9.184699269662129e-11
5.7606886917049884e-09
1.3577698770711264e-09
1.4526778403985899e-09
6.531827516877084e-10
-5.857156765816283e-09
1.5703963159345213e-07
6.348129461299608e-09
1.493182128478645e-08
6.145712010185114e-09
-7.820714686506237e-09
5.817009759375818e-09
3.432321634020944e-10
3.249740125117712e-10
1.8401443334544537e-10
2.6824031842979757e-09
-1.0924978289835576e-08
3.5978221848420983e-09
1.0287501434912171e-08
7.597120941775435e-08
1.2536084208537979e-08
6.452879047673779e-09
6.779570683344172e-10
1.1157727434780874e-08
1.2430972573728913e-08
3.794654783453144e-09
1.2415670120149747e-08
1.1054529856378957e-08
7.675278642171691e-10
1.337374566428346e-10
1.1731201878138236e-08
2.228833996881373e-09
1.2563694992411885e-08
4.613369175231205e-10
1.2921339978626098e-08
1.1731201878138241e-08
-3.139804534089729e-08
1.268849742958196e-08
1.4526895508412104e-09
3.0967731089857775e-10
-4.661291297225232e-09
1.2364460179896007e-08
4.465749141699987e-09
8.852221099090283e-09
4.35216893317366e-09
1.9454586003595557e-08
9.849631230868692e-09
2.82433123088623e-09
8.622654226078855e-09
2.5506266357829313e-09
4.758087708158044e-09
1.12822595684202e-08
9.352279601388087e-09
8.382902695833668e-09
1.8152142485941671e-09
1.2380610219876138e-08
4.194867504616814e-09
4.80016696869496e-09
6.249885660255625e-09
1.289982618973405e-08
1.2089213028415107e-08
7.642349934937946e-09
1.474753801747347e-09
3.9095752435894314e-08
1.034031853028654e-07
5.355755071534493e-09
5.4111991890787305e-09
5.499750914648658e-09
1.2195764752171651e-08
5.401032641418743e-09
1.3850345634260118e-08
1.3755133725595224e-08
1.3850265373011019e-08
2.0466466432061842e-07
-5.040419036844644e-11
9.184487243479909e-11
3.5630426204567532e-09
5.965520379429839e-09
1.0232203035403094e-07
1.2430997242748338e-08
1.2430937234205866e-08
9.786348398736875e-09
4.99186126192284e-08
9.901028765113229e-09
6.145707935847307e-09
6.145445692192464e-09
1.6420167714291092e-09
5.438202542840026e-09
2.412827286811533e-08
4.307063922731457e-09
2.292234062045891e-07
5.5608100797299846e-09
6.452902327336167e-09
1.2920865919313492e-08
7.64262505659536e-09
1.1409528024948953e-08
4.044467091596953e-09
3.3576307328796786e-09
2.357675021926593e-09
1.4747625201663113e-09
9.892531303065049e-09
1.385033559061816e-08
2.5506236796558597e-09
1.238061021987612e-08
7.0737574789358e-09
-1.2641932782376642e-10
4.637189471821265e-09
8.417026556808368e-08
5.965520379429837e-09
9.352860197781658e-09
7.884245591291194e-08
1.3413604318957611e-09
7.736456627552498e-09
9.352846332114836e-09
1.3850335590617994e-08
1.3755133725595208e-08
6.440274757332049e-10
4.194861304272599e-09
9.352847700390881e-09
1.4783426300957613e-07
2.184334050121125e-09
7.483220864557019e-09
6.051409048196912e-09
1.1282258194819003e-08
6.534543398816696e-10
1.0120393227249846e-08
1.5733414534809676e-07
5.6294519220839625e-09
9.161839871308984e-09
4.107939945634678e-10
2.1750219539882393e-09
1.0287542628596106e-08
1.0006455946103603e-08
1.2089135788932441e-08
6.3830064968432095e-09
1.3174635200309592e-08
2.927439031695393e-09
9.075773995606343e-09
9.892531303065046e-09
5.764091887311589e-09
1.4747590690452762e-09
1.256376303872281e-08
5.499719295061165e-09
7.863749003161715e-08
1.155994752293859e-08
7.483217772287623e-09
4.104975390241528e-09
-1.0138549228031337e-10
1.061442618616247e-08
3.905001291701615e-09
3.905001291701589e-09
3.2120906608580037e-09
3.798004541057723e-09
3.0864303083758925e-09
3.2026403618123142e-09
-8.475535841079854e-09
4.758042682516439e-09
-3.1396307152355546e-08
6.442439907526071e-10
2.5931277820006246e-09
-1.524354611502391e-09
2.0062829451026043e-07
1.2563700495542858e-08
1.1282265523145167e-08
2.0254164649419126e-09
4.016508648805553e-10
-3.8213777130066644e-09
-5.1538126252159235e-09
1.0563232147432882e-08
5.611890332234964e-10
1.1568606932902568e-08
5.612071093289895e-10
4.01658521615703e-10
5.451673706212693e-08
1.0292553370975318e-07
3.74322623508074e-09
1.2806426071694019e-09
6.452892532504425e-09
1.5916087630610252e-09
1.2688539482135135e-08
1.1161162383695796e-08
2.0062702340226475e-07
7.819414724606006e-08
6.624020954710458e-09
5.463543633875158e-10
-8.843311447327202e-11
2.9236390265910455e-10
1.675334580118093e-10
1.3819263732535623e-09
3.0904166224106975e-09
1.093177540620692e-09
7.330837946296569e-08
3.010879145135289e-10
1.0046777278623925e-08
1.1467315969092075e-08
6.283473168964574e-10
7.675282210038718e-10
1.3685019873023516e-09
5.325465526108597e-09
1.2536077711293277e-08
7.483244837599229e-09
1.416361375865387e-07
8.285428687498565e-09
6.283507638256183e-10
5.1915995788833963e-08
1.0979785297790397e-07
3.9095758000505974e-08
2.1545116341052096e-09
5.808963653630977e-09
1.3265000078728264e-09
1.4747619485758723e-09
6.322867344653647e-09
9.745096490684246e-09
1.3174635200309458e-08
1.173122412139503e-08
5.499666595969091e-09
3.793167925455665e-09
2.645626210038191e-07
4.707363619134671e-09
5.40102497384472e-09
2.814261132176838e-09
1.4783354925917446e-07
1.1409395208255774e-08
1.034033725830447e-07
6.6240242450174e-09
5.1740970658210005e-09
3.0906026379241413e-09
9.959377785295887e-09
1.5184253781153256e-08
2.5237114689060877e-07
1.0200145884993546e-08
-1.3017866797039804e-10
1.0340326591201889e-07
1.185392130813993e-08
2.5849754572377333e-09
-3.821551769877459e-09
2.652508433648535e-09
2.620127360342581e-09
5.658831585340513e-09
1.470560450049713e-07
5.163860370998978e-08
1.4261116274752022e-07
1.1114299660348033e-09
1.2563738034060097e-08
7.154002297866413e-10
3.173257911475723e-10
3.706553677407283e-08
1.8309389036107248e-09
6.442406317870037e-10
1.0817807101420933e-10
4.720686939365427e-10
1.641104679277594e-08
3.3573851014306418e-09
5.586932953651081e-08
6.278899300976257e-09
2.7089593840491184e-09
6.346361000276865e-09
1.108958246861065e-08
4.800157281760902e-09
-3.0767408693105295e-09
2.4128432021519055e-08
1.081753709279384e-10
8.936794026282883e-10
1.9308497361383916e-08
1.5916087630609722e-09
3.798004051601219e-09
1.0292565976127491e-07
5.586912723637504e-08
1.1199033826337326e-07
1.3957465954163846e-09
2.60568881971274e-09
2.909441335938876e-10
4.3036062931468636e-10
5.806053751660724e-09
-9.813840469518278e-09
4.707350722201695e-09
1.1388992043699536e-08
4.225045685042721e-09
9.075693312002599e-09
8.326465487852194e-10
6.221293232910126e-10
2.7505851907621042e-09
2.4006780425388665e-08
1.4661978328413416e-09
6.925867268079798e-08
1.1388769165381953e-08
4.303321337049658e-10
2.078226258083196e-09
2.1807110904227427e-07
1.175131775022316e-09
-8.04144113545328e-09
1.1388283146644992e-07
2.2552107880495525e-07
4.862696218133709e-09
7.727422341761588e-08
4.247839162792359e-09
2.9445649149259625e-10
4.424394832003181e-09
6.534570526566183e-10
2.5047103068222723e-08
6.4172883414268145e-09
5.4213345095866975e-09
4.5331330608959306e-10
6.138706677850897e-09
9.350274520400477e-09
7.903919010750898e-09
6.196503549326273e-10
2.516688795947814e-07
7.55686106051196e-08
1.0693157744141748e-07
1.3737712245306193e-09
3.67650015057232e-09
6.531117178931539e-10
3.453701578297458e-10
5.960105418803087e-09
1.9322041215426104e-08
8.17694971771056e-09
1.4095799147219231e-08
1.1409760469884183e-09
9.780972908429531e-09
7.154040282145396e-10
-5.0718328055995995e-09
1.6454621964638793e-09
2.2230964226829732e-09
1.0780224496611539e-10
1.2671455057048975e-08
2.6479335362627778e-09
1.0440686451003743e-08
3.6101752446480717e-09
1.2821094149004035e-09
7.855391984364447e-08
1.4571617090413993e-10
8.069020075519901e-08
5.867969440714519e-11
4.064718832227702e-09
5.213945692877284e-08
-8.041377856298437e-09
1.0028454440617303e-09
6.862357108722918e-10
-5.868160554418343e-09
6.138688119123562e-09
3.668903916206226e-09
-5.325682916165914e-10
7.330837632644902e-08
1.7407935265753434e-09
1.326548966887492e-09
-5.8682389418600854e-09
2.510437610608144e-09
4.4419711760606644e-09
3.764736680529518e-09
6.455799151781528e-10
1.5920503160054762e-09
3.931079662887022e-09
2.6101547468358215e-08
3.19975485478241e-09
2.5046999852559247e-08
3.526348473646049e-09
8.132289852732545e-08
2.908922983716391e-10
4.6240718621013185e-09
5.704573141944674e-08
5.80605585808644e-09
3.882359018852143e-09
1.333099822045511e-07
9.756957734035639e-09
1.518480750517111e-08
8.422817552606029e-08
2.0961014104290624e-09
2.5935991522782474e-08
4.058510942924248e-09
2.515015414430403e-07
7.373659007727136e-10
9.287087013994328e-09
3.5363173178953213e-09
-3.995481322182091e-09
4.661133717025929e-10
3.6883036704958528e-09
3.757319580905869e-09
1.445699057735836e-08
3.2120906522976675e-09
8.069042808414591e-08
7.962569328324754e-09
4.786683591435554e-10
8.069002591946309e-08
2.0782927028196154e-09
1.3755194554422989e-08
2.0782927028201084e-09
-5.821604277793969e-09
3.2120982892883762e-09
1.044074378856795e-08
4.717909116257084e-10
2.5935879670350347e-08
5.516376893087235e-08
9.350235800651813e-09
1.4182756221081834e-07
4.02498398573766e-08
7.544849299939458e-09
6.296210357055113e-09
2.9146131835296597e-09
6.532970468025194e-10
6.417013372934893e-09
6.346361000276865e-09
1.8152034153825685e-09
6.416167903508319e-09
2.179663875543095e-07
4.4417823786757606e-09
3.835857131335994e-09
1.3226627635654271e-07
2.9105700504870116e-10
3.249774052251819e-10
-8.477402307491513e-09
1.3737695808644611e-09
1.0780338253032996e-10
6.531299928811982e-10
-3.995475877052629e-09
3.931052141413644e-09
6.251205403616082e-09
-5.869454702800624e-09
3.19977334362489e-09
6.779523083571877e-10
1.9656552914705136e-09
-5.8212541006119445e-09
1.322662763568513e-07
7.733263492517298e-09
-1.1007338986503295e-08
6.417614792306081e-09
2.48267245469302e-09
3.743234540674545e-09
2.911201333866125e-10
-5.8694149477329596e-09
2.912514019126434e-09
-5.8575106401623465e-09
3.5674961700315595e-09
2.912481453163553e-09
6.53299642867927e-10
1.249829966648742e-07
1.4092492560386274e-09
7.323307991924249e-09
4.472354381692155e-10
1.4456792868527566e-08
6.250511869578504e-10
5.5065671703904325e-09
2.912420832307792e-09
1.2394498746118607e-09
1.9545039061362375e-08
8.937096820999315e-10
4.105050850542219e-09
4.1049598174353615e-09
-5.323027457639943e-10
2.605688836937286e-09
3.249753559465075e-10
2.2095404258510625e-09
2.9570198080261805e-07
2.9108055016379263e-10
3.2120751504040803e-09
2.9124637481875514e-09
3.199782672744512e-09
5.86819526862293e-11
6.418859368254866e-09
1.3227742087387714e-07
3.212115341874586e-09
6.5345705265665e-10
3.241000332636714e-09
1.0028395482651366e-09
-5.325721463394265e-10
3.757320005967004e-09
3.5675005199240497e-09
5.410631430547463e-09
6.535383661722787e-09
-7.4475212025826385e-09
1.3815033796048637e-09
6.418389134895595e-09
-5.868086980022733e-09
3.5978582291489796e-09
2.4135005005011057e-07
3.5263612320797865e-09
-4.990736909203027e-09
1.592048368645246e-09
1.3373177604088017e-10
3.247673052079851e-10
3.5634107652718494e-09
2.936971071567094e-10
2.9329588967598447e-10
-1.0255780454011844e-08
4.786081003219873e-10
1.1409479243593203e-09
9.780937037040941e-09
3.526376222641818e-09
1.6411014559218532e-08
3.5634064130324182e-09
4.717908894386196e-10
2.628748291973361e-10
2.944515759740191e-10
6.196741649693945e-10
4.717909178735448e-10
1.6411067474935538e-08
6.531175105683524e-10
2.729221933810747e-10
4.105008293769895e-09
2.9330946900938485e-10
2.9088889955362695e-10
5.7928871799416e-09
3.536306169596131e-09
6.533101232659892e-10
3.2120751502781404e-09
4.63713375102174e-09
7.55741196745897e-08
2.5104132135129813e-09
2.4190320721259e-09
4.533147868355184e-10
1.5184978806714063e-08
9.75687111715826e-09
2.4181914966114434e-09
4.720963217835905e-10
2.9446142491310723e-10
1.965689508798033e-09