# vtk DataFile Version 3.0
Inflated mesh
ASCII

DATASET UNSTRUCTURED_GRID
POINTS 503 double
 -0.00358572  -0.00372000  -0.03554837
  0.00650611   0.01858610   0.04096963
  0.01126302   0.02049434   0.03585270
  0.00639676   0.02084513   0.03543035
  0.00393151   0.00613710  -0.03956541
  0.00836610   0.00678225  -0.03977282
  0.00445958   0.00347247  -0.03850132
 -0.00604504   0.01514490   0.03489521
 -0.00903044   0.00666362   0.03907256
 -0.00247962   0.01313986   0.04097357
  0.00142549   0.01663503   0.04123527
 -0.00509560   0.00504684   0.04280270
 -0.00104389   0.00935009   0.04369497
  0.00761130  -0.01705529  -0.03395780
  0.00692221  -0.01438777  -0.03565183
  0.01084042  -0.01556353  -0.03365153
  0.00980055  -0.01876030  -0.03145122
 -0.00639451  -0.00753352   0.04189445
 -0.00318676  -0.00629890   0.04482532
 -0.00637631  -0.00577176   0.04285219
  0.00513241  -0.00083687   0.04471987
  0.00367596   0.00086724   0.04461942
 -0.00078939   0.00376485   0.04445698
  0.00253915  -0.00075400   0.04564836
  0.00165792   0.00591529   0.04489567
 -0.00946676   0.01134589   0.03469924
 -0.01714070   0.00626067   0.02775755
 -0.01006792   0.00390599   0.03892764
 -0.01691908   0.00234469   0.03005320
 -0.01110714   0.00032449   0.03829606
 -0.00608394   0.00196806   0.04312380
 -0.00233798  -0.00316247   0.04584425
 -0.00685605  -0.00230986   0.04316752
 -0.00187717   0.00007052   0.04543628
  0.00217685  -0.00290149   0.04653124
  0.00306582  -0.00589486   0.04643298
  0.00786578  -0.00529556   0.04549847
  0.00694855  -0.00294931   0.04527690
  0.00729889  -0.00051514   0.04481848
  0.01633420   0.00036240   0.04701079
  0.01269956   0.00051497   0.04650838
  0.01324817  -0.00473864   0.04589935
  0.00933287   0.00096301   0.04532809
  0.00903815   0.00330528   0.04529071
  0.01192822   0.00432417   0.04767384
  0.00793848   0.00510961   0.04588965
  0.01029818   0.00876167   0.04917113
  0.00799307   0.00694786   0.04794296
  0.00672432   0.01002444   0.04832148
  0.00483919   0.00716172   0.04645935
  0.00373837   0.01317185   0.04606013
  0.00322070   0.01042029   0.04625331
  0.00866262   0.01243178   0.04830642
  0.00673807   0.01537873   0.04576149
  0.01097661   0.01435513   0.04712214
  0.01306798   0.01628932   0.04477818
  0.01438754   0.01322404   0.04724213
  0.01667206   0.01529779   0.04428900
  0.01451704   0.01818140   0.04050931
  0.01880904   0.01719203   0.03854460
  0.01492978   0.01990787   0.03454958
  0.00491382   0.02391436   0.02620580
 -0.00259408   0.01898823   0.03345576
  0.00146396   0.02061954   0.03390398
 -0.00587965   0.02251592   0.02293169
 -0.01607311   0.01006403   0.02628935
 -0.01341957   0.01511431   0.02456194
 -0.02201575   0.00778015   0.02057519
 -0.02272463   0.00235495   0.02234363
 -0.02237553  -0.00251500   0.02386737
 -0.01946475  -0.00702707   0.02722701
 -0.01605729  -0.01083243   0.02957353
 -0.01192672  -0.01354067   0.03205156
 -0.00758515  -0.01523179   0.03433481
 -0.00387795  -0.00931534   0.04268849
  0.00023497  -0.01022370   0.04391704
 -0.00043627  -0.00907056   0.04453453
 -0.00327155  -0.01715929   0.03446621
  0.00409911  -0.01418228   0.04024126
  0.00277725  -0.00826721   0.04561454
  0.01065101  -0.01289054   0.04208006
  0.01359352  -0.01106753   0.04345192
  0.00876907  -0.00775909   0.04511069
  0.01561743  -0.00682716   0.04563561
  0.01062056  -0.00540141   0.04548471
  0.01764515  -0.00846749   0.04424354
  0.01890387  -0.00286450   0.04630828
  0.02245698   0.00011558   0.04453213
  0.01931367   0.00366021   0.04716521
  0.01471089   0.00544764   0.04829566
  0.01872283   0.01055179   0.04661754
  0.01575697   0.00897218   0.04848494
  0.01202874   0.01121370   0.04883331
  0.02258444   0.01022313   0.04272907
  0.02158264   0.01452413   0.03896966
  0.01999187   0.01328918   0.04355153
  0.02402103   0.01087756   0.03816075
  0.02214429   0.01505057   0.03252682
  0.01877528   0.01885542   0.02905516
  0.02471493   0.01086636   0.02792070
  0.02251632   0.01569189   0.02413865
  0.01934871   0.02048173   0.01923197
  0.01486719   0.02432300   0.01612558
  0.01481213   0.02169391   0.02628048
 -0.00191762   0.02793457   0.01402434
 -0.00081498   0.02448421   0.02298230
 -0.00735497   0.02515283   0.01693523
 -0.01344912   0.02244793   0.01603585
 -0.01006323   0.01916046   0.02360100
 -0.01900337   0.01910123   0.01445503
 -0.02175152   0.01380022   0.01639080
 -0.02557620   0.00269812   0.01751356
 -0.02665280  -0.00345770   0.01645645
 -0.03030211  -0.01119432   0.00847831
 -0.02560496  -0.01704873   0.01154086
 -0.01932342  -0.02057992   0.01599903
 -0.01310983  -0.02290740   0.01930307
  0.00141320  -0.01799680   0.03470457
  0.01058249  -0.01608621   0.03851884
  0.01174965  -0.01785502   0.03530078
  0.01614432  -0.01419111   0.03946396
  0.01523079  -0.01212337   0.04222427
  0.01954340  -0.01005217   0.04179804
  0.02242467  -0.00645606   0.04141569
  0.02042437  -0.00552606   0.04428619
  0.02488361  -0.00308297   0.03695191
  0.02447499   0.00041349   0.04146188
  0.02560008   0.00632127   0.03665277
  0.02415672   0.00629510   0.04195673
  0.02183834   0.00564744   0.04538461
  0.02562365   0.00159068   0.03675743
  0.02608663   0.00558335   0.02219679
  0.02543971   0.01122866   0.01856733
  0.02388024   0.01648151   0.01493618
  0.02050477   0.02163509   0.01275103
  0.01075476   0.03122668   0.00139698
  0.00340657   0.03254475   0.00156152
  0.00389936   0.02787951   0.01471327
 -0.00385944   0.03242649   0.00278064
 -0.01062356   0.03087915   0.00400862
 -0.02174110   0.02203408   0.00742893
 -0.02886295   0.00999206   0.00886356
 -0.02573841   0.01638629   0.00817070
 -0.03104670   0.00333416   0.00901228
 -0.03187270  -0.00380673   0.00846217
 -0.00838978  -0.02617739   0.01755729
 -0.00352704  -0.02896275   0.01410832
  0.00499720  -0.02178575   0.02836781
  0.00283413  -0.02804426   0.01605991
  0.00954741  -0.02367102   0.02310275
  0.01483331  -0.02084059   0.02482145
  0.01612181  -0.01695685   0.03457305
  0.01976890  -0.01812206   0.02192337
  0.02039901  -0.01399933   0.03424832
  0.02051192  -0.01175075   0.03858578
  0.02349613  -0.00778617   0.03717138
  0.02488509  -0.00640089   0.02289496
  0.02591571  -0.00046927   0.02179980
  0.02308190  -0.01242095   0.02392337
  0.02552931  -0.00833716   0.01712098
  0.02691261  -0.00070944   0.01606862
  0.02700118   0.00508359   0.01654341
  0.02952208   0.00484780   0.00789958
  0.02865074   0.01125984   0.00592515
  0.02631010   0.01801828   0.00439682
  0.02336153   0.02470244  -0.00022716
  0.01776023   0.02867144   0.00041576
  0.00426459   0.03373286  -0.00589039
 -0.00373211   0.03373310  -0.00218693
 -0.01124480   0.03298110  -0.00274695
 -0.01814130   0.02969648  -0.00208127
 -0.02369918   0.02431136  -0.00102301
 -0.01669304   0.02656296   0.00702901
 -0.02748136   0.01763863   0.00239537
 -0.03211885   0.01138464  -0.00295269
 -0.03089111   0.01094780   0.00330917
 -0.03459868   0.00415364  -0.00218421
 -0.03321388   0.00377844   0.00406376
 -0.03537572  -0.00340169  -0.00225976
 -0.03384271  -0.00376783   0.00425192
 -0.03385295  -0.01113990  -0.00050288
 -0.03256647  -0.01123615   0.00384319
 -0.03088944  -0.01830146  -0.00127845
 -0.02895222  -0.01814455   0.00490199
 -0.02558202  -0.02453556  -0.00035116
 -0.01859603  -0.02847877   0.00240565
 -0.02309853  -0.02310074   0.00777732
 -0.00987282  -0.02903787   0.01090456
 -0.01590476  -0.02621229   0.01126510
 -0.00375225  -0.03223272   0.00520439
  0.00324731  -0.03120785   0.00864394
  0.00999149  -0.03073893   0.00740424
  0.01512477  -0.02472261   0.01503846
  0.02064967  -0.02070665   0.01393130
  0.02415776  -0.01422920   0.01615508
  0.02939088  -0.01020549   0.00397678
  0.03044229  -0.00330810   0.00361388
  0.03102998   0.00420312   0.00061563
  0.02799686   0.01884873  -0.00390238
  0.03017378   0.01200294  -0.00391326
  0.02452613   0.02485852  -0.00546611
  0.01868614   0.02926313  -0.00513279
  0.01924744   0.02863332  -0.01154079
  0.01199635   0.03219033  -0.00664352
  0.00454428   0.03263818  -0.01432043
 -0.00319923   0.03225966  -0.01702782
 -0.00377693   0.03413072  -0.00893326
 -0.01109930   0.03189834  -0.01577492
 -0.01152273   0.03326487  -0.00946927
 -0.01870302   0.02979727  -0.01266938
 -0.01881180   0.03026361  -0.00808725
 -0.02442071   0.02511402  -0.00941978
 -0.02859914   0.01827400  -0.01044288
 -0.02857232   0.01826964  -0.00368234
 -0.03199814   0.01150211  -0.00968277
 -0.03438061   0.00450592  -0.00922044
 -0.03515767  -0.00274751  -0.00917303
 -0.03403928  -0.00999718  -0.01141976
 -0.03444989  -0.01072274  -0.00504412
 -0.03134801  -0.01696162  -0.01200776
 -0.03158066  -0.01791391  -0.00581043
 -0.02699054  -0.02337446  -0.01105673
 -0.02684496  -0.02416915  -0.00660941
 -0.02108911  -0.02842488  -0.01175897
 -0.02075996  -0.02914635  -0.00742958
 -0.01998997  -0.02918918  -0.00308868
 -0.00512368  -0.03403701  -0.00375641
  0.00316018  -0.03367971  -0.00086664
  0.01039506  -0.03286960  -0.00365835
  0.01040274  -0.03228543   0.00177439
  0.01705766  -0.02915376   0.00421253
  0.02235611  -0.02399687   0.00533498
  0.02735482  -0.01834620   0.00177102
  0.03025062  -0.01151164  -0.00198801
  0.03117746  -0.00369414  -0.00237506
  0.03065199  -0.00478733  -0.00978527
  0.03005441   0.00197946  -0.01482534
  0.03139982   0.00389501  -0.00747159
  0.02837385   0.01785974  -0.01143722
  0.03013984   0.01093269  -0.01113875
  0.02504895   0.02394459  -0.01205350
  0.02380821   0.02105356  -0.02021584
  0.01859095   0.02603783  -0.01981770
  0.01184956   0.02772773  -0.02185152
  0.01198712   0.03081322  -0.01507350
  0.00450129   0.02996145  -0.02091150
 -0.00270069   0.02841597  -0.02395482
 -0.00953165   0.02786961  -0.02363169
 -0.01611972   0.02599375  -0.02292101
 -0.01796472   0.02861038  -0.01700567
 -0.02236399   0.02272320  -0.02012783
 -0.02378979   0.02400036  -0.01589596
 -0.02792499   0.01787818  -0.01482608
 -0.02794468   0.01467166  -0.01877618
[...]
CELL_DATA 1661
SCALARS cell_volume double 1
LOOKUP_TABLE default
2.9696868605067903e-07
2.707552271897272e-08
3.4745451628465366e-07
1.438415405360114e-07
4.72055060636272e-07
1.5447906501033085e-07
9.312855563758775e-07
3.524861339282694e-07
3.489412633521949e-07
3.58751996759017e-08
2.3439088185660127e-09
2.488531036041718e-07
1.971151015662582e-07
3.894469230717055e-07
4.5839836619158014e-07
1.718013715116195e-07
4.174247254311734e-07
5.605696024938544e-07
2.63157755114998e-07
1.5849985565820625e-07
1.907218421912351e-07
1.8583896265345807e-07
5.00487931176772e-07
2.902751192729798e-07
8.703184248040385e-08
8.019741378019526e-08
3.281946477035785e-07
1.4188479846970305e-07
2.1429621446894977e-07
1.994754673272535e-07
3.592982046219258e-07
3.262295339278512e-07
3.0773530001488303e-07
3.39764281751181e-07
1.5568245553636388e-07
2.4370848579144727e-07
8.408615498233567e-09
5.524430025376821e-07
3.3475026093406176e-07
4.552349706370321e-08
2.8640558616590544e-07
3.70328800548207e-07
1.5711681050508296e-07
3.7813571742833847e-07
3.4053759583843394e-07
3.457466726609036e-09
3.217849517577849e-07
2.366574526355359e-07
1.5021311718683268e-07
2.5632834144007114e-08
1.3921294446606654e-07
1.098092348231524e-07
1.3262178870675959e-07
2.47512605624923e-07
4.2431428898671864e-07
-1.9066934914077405e-08
3.3862422723179065e-07
1.3722064903936591e-07
1.4707989706317303e-08
3.8607161589325375e-08
7.782646625555812e-08
8.954349849017548e-07
6.678584800004385e-07
1.2895175661692686e-07
4.0247300817816336e-07
9.186655135062271e-08
3.1803381260529187e-07
-2.5050636858557297e-08
2.076310801688487e-08
2.262094705567429e-07
6.745651388555112e-07
1.7834105595436198e-07
2.9476978022916533e-07
2.271037604692895e-07
1.9919814576547826e-07
1.9793417216308946e-07
2.800048993682407e-07
2.045063176986374e-07
1.045022103676269e-07
1.983229342906235e-07
3.270082802406946e-08
3.360948857981014e-07
1.899553089160661e-08
1.319633516672686e-07
7.185920528094033e-07
7.338363080811447e-07
5.841876198849767e-07
3.128187575658899e-07
4.595877803205704e-08
1.2756604418691343e-07
2.592033218315168e-07
4.3994864115858104e-07
1.4021579585770918e-07
1.581408328415317e-07
2.1009458886463934e-07
2.2543197231010547e-07
1.893363192536756e-07
3.83436577440995e-07
1.9610101702522938e-07
1.54690861045508e-07
1.0754625994509369e-07
7.498962089046744e-07
3.671922522216512e-07
3.665419417077466e-07
3.8277396713026776e-07
1.4201637819579478e-07
1.1653832277147716e-07
2.552116301065025e-07
4.5776419548391857e-07
1.2780581079899294e-07
2.7369240399900574e-07
2.1730033949971734e-07
3.3767833836097653e-07
8.289327418678108e-08
-6.362207435800799e-09
2.9668804108093377e-07
2.541044683544606e-07
2.1717109465454547e-08
7.619185860367174e-07
1.1058763796711398e-07
2.900653448695018e-07
8.213300282991434e-08
2.7536830665342234e-07
1.0593442791690233e-07
3.452738402761197e-07
1.4625541660748066e-07
5.640602663948448e-08
1.4886179365203502e-07
4.214232546241942e-07
2.455441554262435e-07
3.3107604125135444e-07
4.1757351254734775e-07
3.0208736836569357e-07
1.1035485093258207e-07
3.8461059573091557e-07
3.5844308085873553e-07
3.619401068478671e-07
2.504857115832342e-07
7.530888516685461e-08
2.166109350708008e-07
1.066610340350413e-06
7.348925329156283e-09
7.709775904869042e-08
2.4522371696079117e-07
6.666363824816753e-08
3.2148699279677954e-07
3.3907104127039324e-07
4.3482453761893594e-07
3.039906306264102e-07
2.915981167537472e-07
2.824567953983628e-07
2.9569072174334266e-07
3.544746622051293e-08
2.9380541938331503e-07
4.661218556562132e-08
2.683061068266023e-07
2.3713958605215293e-07
3.748935927243678e-07
3.4566290415709093e-07
3.881149985412267e-07
1.5533503240769122e-07
3.420792818882106e-07
4.01544250788591e-08
7.47519384235709e-07
1.4738037937526118e-07
1.048520467640839e-07
3.724054293733837e-07
-8.022740198494283e-09
3.114813853432331e-07
2.2675514038245017e-07
1.4746085735702262e-07
1.8540427004676274e-07
5.277694431929511e-07
1.9514402359419707e-07
5.5463481191363566e-08
3.9845829184320354e-07
1.6585879919473903e-07
2.2693214389218997e-07
5.087523814087684e-07
3.1751572232294486e-07
3.320101293507713e-07
3.1899406162881845e-07
2.984025070022742e-07
3.7092510775322197e-07
2.460512211015384e-07
1.163283766258886e-07
4.646731484448427e-07
1.579823881214217e-07
3.0847843429288086e-07
1.373465370237707e-07
9.042754026909752e-08
2.153249757139364e-07
3.76778438034674e-07
3.010743234787506e-07
6.62290696646014e-08
1.6119180102997615e-07
1.704263551027888e-07
2.861385384009208e-07
1.5569018735504747e-07
2.570111922794632e-07
-1.0003338496985983e-08
1.1111170007556542e-07
5.2324044261032e-08
2.6335581951652516e-07
3.1850974237187116e-07
2.946698324927624e-07
3.475552238589979e-07
8.219520862781188e-08
6.505619700687381e-09
-2.0779183785194174e-08
3.022772355435518e-07
5.550043980875722e-08
6.716009148410034e-07
6.790604977732157e-08
4.1231479729293294e-08
2.593566468174807e-08
2.956292475550621e-07
2.398163904331423e-07
2.94127397181819e-08
1.1188880755360931e-06
2.743801656978624e-07
5.704972515516084e-07
3.6968206773841086e-07
1.324472839881323e-07
5.303483607847767e-07
2.1038199172497267e-07
7.97639134913247e-08
1.06162204978783e-07
1.5589014380089116e-07
3.36909378289789e-08
3.655657794464296e-07
2.699371441494226e-07
2.3337347875080095e-08
-8.76071647260404e-08
3.6842812226657894e-07
3.9326234423664565e-07
1.717456450567787e-07
1.215033898456327e-07
1.4459120615273794e-07
3.553711687451265e-07
7.781746238036792e-08
1.2231801336821615e-07
4.2490536139840583e-07
5.940706107912355e-07
-2.82127801311953e-08
2.4950202714836703e-07
1.3608688299522455e-07
2.6756721524648286e-08
5.27026852480609e-07
3.4296532289807105e-07
2.9738066119137703e-07
4.2665755984337845e-07
2.2271867627763867e-07
2.5151854723725715e-08
6.38662493302861e-08
4.532261719222808e-07
3.202759680945125e-08
5.098709522272357e-07
1.8637005165943934e-07
1.0476375476221551e-07
2.291780159803095e-07
3.622333776551655e-07
1.5048231197365244e-07
6.510956974829528e-07
4.929291229925757e-07
1.524512105870405e-07
8.043558612636814e-08
2.9239964251292585e-07
3.8007058645088135e-07
9.835867477950543e-08
3.487461286845633e-07
1.3410664716040868e-07
3.048546161588262e-07
2.566316248236793e-07
3.2297546672830086e-07
1.7361523904327232e-07
3.2874131535349715e-07
4.120272100341974e-08
6.736230749901522e-07
1.0998562418103344e-07
2.453658040762552e-07
9.440954052862033e-08
7.49022905527076e-08
6.252732240234553e-07
4.1124505259605023e-07
3.0492572873992503e-07
1.0136499784890911e-07
5.10333420362795e-07
3.072987465278151e-07
3.020546186446363e-08
4.514004485597103e-07
3.2325098735765465e-07
5.513114556373704e-07
2.1843503446192892e-07
9.9636884275809e-08
1.537688482773195e-07
3.7302885011065285e-07
2.9539444798388725e-08
4.244146374863136e-07
2.5228632062412493e-07
1.5800798581411173e-07
3.490759825109166e-07
1.9323441413676585e-07
3.28974399252891e-08
4.31353697060124e-07
4.97049238508406e-07
6.200618972873467e-08
2.7563328946255586e-07
8.332779120140722e-07
9.034838329324574e-08
3.538573772464163e-07
-7.340555289951993e-09
4.137644271992493e-07
2.1598849921789637e-07
5.595984340005794e-08
3.947128869113947e-07
1.0676345854225958e-07
4.1901151149806243e-07
1.8658356882267198e-07
1.6369505666264233e-08
4.974465226557663e-07
-1.9380912194118695e-08
3.286213252548335e-07
5.922567468583505e-07
2.858878552609037e-07
2.7700937500959474e-07
5.877337864369261e-08
3.907540025255761e-07
2.9450975838862573e-07
1.9121403136739653e-07
3.5885613604938015e-07
5.297383739750977e-07
2.853627420419205e-07
2.744624724884773e-07
2.8349888598388557e-07
2.1292233822833882e-07
5.415295722389351e-07
2.392751671733537e-07
2.760859538371645e-07
1.892347123226345e-07
2.0763421515732952e-07
1.8184524361901221e-07
1.0319987122733826e-07
8.720617762643594e-08
2.0906629041608487e-07
1.7103843024775312e-08
5.771887484841873e-07
4.107859020160893e-07
1.3425836226919644e-07
6.242077013429428e-07
5.047742808838937e-07
7.39864586933341e-08
2.577703750494406e-07
1.362961434513926e-07
1.0762089542236145e-07
3.729527439269628e-07
3.3761808661712477e-07
4.3757448661754704e-07
1.875437378016315e-07
2.034295118070236e-07
7.804764693725294e-08
1.5822556509574663e-07
8.713898629450095e-08
3.5304400855983057e-07
4.322139262444592e-07
1.909634743422566e-07
3.3828674815101957e-07
2.9773987479520775e-07
2.1683427243728277e-07
2.58380734178534e-07
2.3221486647632277e-07
1.8381444811487635e-07
-1.4441526189571042e-08
3.017259009723375e-07
2.975375149425925e-07
1.83496331765391e-07
6.633779708627883e-07
-1.6471211073867437e-08
4.190878668978718e-07
1.682417372731336e-07
1.3296030064479644e-07
1.0410527152597152e-07
1.658688502425983e-07
1.6530355440353402e-07
1.153812440301645e-07
6.682747850772081e-08
2.2008628182086602e-07
3.6829610837160564e-07
7.239395756076657e-07
3.6276464674788993e-07
2.325713989747201e-07
2.513009800437505e-07
1.822924642323618e-07
2.616315281256999e-07
9.1144757345615e-08
1.6714187890759587e-07
-3.1126984315852876e-09
3.415469684276432e-07
1.8309049837657768e-07
1.4167515905998454e-07
1.3293016485645444e-07
1.1769874892702691e-07
1.5779174916329102e-07
2.309729143959371e-07
4.032670075412573e-07
2.775526081633762e-07
3.12285971126546e-07
3.070016308652121e-07
2.382260591806752e-07
3.703518028425737e-07
3.578589554076146e-07
2.4079476407751786e-07
2.1846757443183467e-07
4.354892584032119e-08
3.86781821287023e-08
-8.956616015409043e-09
4.965646513303863e-07
2.3558531942503173e-07
1.1005886097166358e-07
8.759975985152019e-08
2.785761465426698e-07
1.1005128433503284e-07
-1.6793036744930046e-08
5.211947073423493e-07
3.009964923741539e-07
2.0917761151893538e-07
7.810806480291033e-07
3.5548601353997e-07
2.0564518983927305e-07
8.267446362190403e-07
1.5839564410265133e-07
1.9756938931882963e-07
5.2495516923708944e-08
2.699144475270889e-07
5.217325524723946e-07
1.4628525910911592e-07
6.8188257220343e-07
3.370045003538895e-07
2.006273618950217e-07
5.402548497011719e-07
6.988717331281431e-07
3.917846188283748e-08
3.5550410196823524e-07
7.17628340774588e-08
5.741474022790066e-07
3.873151289146647e-07
6.486058943532118e-07
2.5753309482592537e-07
1.4184734113994814e-07
2.519018123304855e-07
1.6269741985209082e-07
7.846270208779115e-08
1.769713530330176e-07
1.4564425414034984e-07
-2.0394222405575938e-09
2.0223674970575468e-07
5.024908278372171e-07
5.092541453654871e-07
1.1457002475901084e-07
2.063514251709654e-09
3.0083083804438294e-07
2.4572138379241345e-07
5.0228345302338e-07
4.1674060854143224e-07
4.201700851867647e-07
2.8894473758606196e-07
5.238016367131862e-08
6.728630390723953e-08
1.4681064063418158e-07
1.1525847147554012e-08
1.8869836242003967e-07
4.4012498193675376e-07
8.105820034357147e-07
1.1439079859292356e-08
3.836355935845767e-07
6.80247127624132e-08
1.5066701130179532e-07
1.7848293515701066e-07
3.934780308780678e-07
1.6090014524791764e-07
2.802372396685124e-07
3.626886508746444e-07
8.986024178319403e-07
1.9505473741323714e-07
6.278378241570045e-07
-1.644667375625554e-08
1.738466790692355e-08
1.05099908338832e-07
6.508347629009659e-08
1.9931409961548804e-07
1.5415020949152986e-07
8.141043141984414e-07
5.5597241868919794e-08
1.046416053233109e-07
4.778888127867376e-07
1.251967524227272e-07
2.509464687431925e-07
4.2759002919014755e-07
3.390311553223037e-07
9.152241471208524e-07
1.198532301281434e-07
1.367401512409159e-07
3.8851130124300627e-07
2.0381522195489178e-07
1.5157927841380118e-07
3.533311764163407e-07
4.370983204957e-07
2.0493069537878517e-07
2.6535805915916955e-07
6.887880750891253e-07
1.0835939151829946e-07
1.6508802559979108e-07
1.9119012716984362e-07
3.3002905954217676e-07
4.511166315622859e-08
2.727393872092735e-07
2.529907077742838e-07
1.0761230310694863e-07
2.7849632088550098e-08
8.70780516641901e-08
1.1997646782500383e-07
3.159242037252966e-07
6.066137644477407e-07
2.5155213563591307e-07
3.9884395296202596e-07
8.740497409210839e-07
3.3323143189180603e-07
4.81118722364769e-07
2.0636720553452704e-07
4.262936578874241e-07
3.5828736571372456e-07
5.5968569862946196e-08
5.431629385182987e-07
-5.234034199107488e-09
5.602059795186959e-08
7.706736353801463e-08
5.488489808538673e-07
1.7005921820445666e-08
3.868516413731516e-07
3.2150568008426863e-07
3.714025245570786e-07
3.4579707740831755e-07
1.3574667987633254e-07
4.3902624706480646e-08
8.275128606601418e-08
1.2938257524072177e-07
6.164184236372733e-07
3.968928201614338e-08
2.444960264206052e-07
7.829484021266746e-08
3.2395394578923613e-07
3.5925784817486045e-07
1.3004984056200806e-07
5.021226506478383e-07
-5.609562639817118e-09
1.6357278444801874e-08
2.1916822518538334e-07
1.265227011270295e-07
-6.511317698083738e-09
1.324351090157369e-07
3.9242909806535826e-07
2.649155830003091e-07
3.119329201313809e-07
9.485886250787379e-08
4.039806356775056e-07
1.901263651738384e-07
1.0904127625928785e-06
3.190295975428653e-07
1.8682192045137224e-07
8.991772319103307e-08
2.4135709982933228e-08
1.510399571636432e-08
2.5810817851791923e-07
4.45933071208565e-07
1.7155312335888116e-07
3.4980451943380666e-07
-3.58337795189581e-08
3.3901686120424005e-07
2.631225255156585e-07
1.1896670951109649e-07
1.3271936175040626e-07
1.907246871876949e-07
1.4701983543396133e-07
2.2701778341293037e-07
1.2908170133401362e-07
-6.382330150304405e-09
2.423172337145459e-07
1.5358302881577534e-07
2.0548944917072111e-07
2.9477737808297303e-07
3.88867698850435e-07
3.8144927309165106e-07
2.6016513501350685e-07
3.062402086929137e-08
2.85111740936406e-07
4.517088964060551e-08
2.8900279126162806e-07
8.817169699108694e-08
6.111831910024396e-07
3.4749400663068794e-07
3.4112591325786995e-07
4.831932438474732e-07
4.705069120614925e-07
1.1468000854957982e-06
8.735896627220893e-08
4.991377447919708e-07
2.2969895627802758e-07
3.355662367233229e-07
7.831735929488522e-08
1.5251995819248059e-07
1.4171222327037044e-07
1.5483206062226058e-08
9.998022774970054e-08
3.313178089369934e-07
3.4888990937074534e-08
1.9039290205033312e-07
8.183272142080459e-08
1.7355528282154002e-07
8.161129082101199e-09
2.1681552741618393e-07
2.9753064823966804e-07
4.379236921945576e-07
3.3685631140785475e-07
1.707201609589465e-07
5.048935272177783e-07
5.33463685769924e-07
2.0764122417193392e-07
1.6322377908172238e-06
1.648253501483063e-07
1.1823789786473465e-07
1.5927551721543393e-07
-4.916084094972344e-09
3.245282545637983e-07
1.163644268430746e-07
1.9698727456346408e-07
1.2157651258484097e-07
5.979090830045333e-08
1.219895723545043e-07
8.63328024640835e-08
2.345619229755034e-07
3.3694575564415767e-07
4.0952331485474045e-07
3.958104264034752e-07
1.6815251113821604e-07
3.682581918152735e-07
1.5314657692514046e-07
1.1290336766752468e-07
8.476279108991114e-08
1.1549469624339206e-06
4.072916201182555e-07
2.2986510895166862e-07
3.0227919304999433e-07
8.893845233470544e-08
5.370099242798995e-07
6.114085170119011e-07
9.70031936574905e-08
2.6935943575491916e-07
7.019451388581977e-08
-1.2422271138985578e-09
8.658615496485807e-07
6.90157346165456e-08
1.0902692626369877e-06
4.086062829951192e-07
5.189809813800023e-07
4.9103249398432516e-08
7.365623019437506e-08
7.469548106461812e-09
1.295985962917321e-07
6.109057136545094e-07
8.92409961539962e-08
9.136351390829513e-09
1.0050216374830356e-07
1.909857093965082e-07
5.4892648503121035e-08
1.3318770483245779e-07
1.599150691703873e-07
1.7111944771128336e-08
1.9589093086724405e-07
2.395910981426219e-07
3.1035202741592586e-07
1.1504859283713908e-07
2.0164460655791853e-07
6.448353579794898e-08
1.331662895371608e-07
3.7367833445827266e-08
7.907939387791556e-08
1.7720676538416886e-07
1.6307322817222083e-07
3.652370084940509e-07
1.3811071942173e-07
2.0376531334973368e-07
7.634828730481031e-07
2.3573886665142793e-07
5.219017228410746e-09
2.1514391143417218e-07
3.623465632530366e-07
1.0425140072470495e-06
1.3759737813064155e-07
2.891227019165496e-07
-1.5292724191450236e-08
4.230221502283688e-07
7.881352684898355e-07
1.3928776041127206e-07
3.8733468724130213e-07
4.0524077575429613e-07
3.548980059863949e-07
5.218904700040836e-07
1.8250559145653178e-07
4.843500181705804e-07
2.1366317101469897e-07
3.9653031381788066e-07
2.2800279156709675e-07
2.80771047210666e-07
1.278845373903385e-07
1.5840658601196748e-08
1.804341093127291e-07
1.7199423487957684e-09
3.5873671982317833e-07
4.1964287666675746e-07
1.8207379880498385e-07
1.7554599588773797e-07
7.800865776203281e-08
4.513176589993334e-08
1.6222022783424014e-07
2.799566009816881e-07
3.1053405132670784e-08
2.7671160571222643e-07
3.844158654452271e-08
1.1357744303679276e-07
3.819066525625712e-07
2.613360540007745e-07
2.7223065482922184e-07
1.3783082099054126e-07
3.056255139726438e-08
5.594512812623928e-07
3.2832784866369823e-07
2.2899256939518332e-07
7.652471193950093e-08
6.616435724701984e-07
2.8259193917686957e-07
2.3229256831216292e-07
4.744733886287379e-07
2.0538960566315748e-07
1.2316354678262723e-07
3.8117505130489536e-07
4.830757548640033e-07
5.522685335362482e-07
4.5182599186554893e-07
1.9110220920075293e-08
7.859096186693459e-08
1.880386943444347e-07
1.131034991297218e-07
1.8318008083083284e-07
1.2910826025895852e-07
3.370342360724859e-07
2.852339255685007e-07
2.8425731797956268e-08
3.744520481736732e-07
4.926828792443383e-07
6.426656258839837e-08
9.617051338985486e-08
-5.409071637353245e-08
1.4871880756893372e-07
1.8902797779011724e-07
2.346567881277871e-07
2.943264891448226e-07
1.3230119386029232e-07
4.81912097507153e-09
3.9049596620363025e-07
3.929360462731787e-07
4.3768845810094527e-07
3.0689609459020334e-07
3.3453128232283275e-07
5.371769369422841e-07
3.607745522142314e-07
1.055019429146963e-07
6.649132723250213e-07
7.339664729448115e-08
1.208612114444603e-07
3.782887071551069e-07
3.0671543475988855e-07
2.7487853614543695e-07
1.9375930674816923e-07
4.6761748942963507e-07
2.7575872921289567e-07
3.315912162529355e-08
1.0426577476374959e-07
2.396609325178221e-07
4.4572344935986683e-07
2.2212737513877316e-07
2.3755688340512814e-07
1.1480669969116364e-07
1.4367146662108046e-07
5.783206861860571e-08
4.48898221312306e-07
3.743594487103223e-07
7.490289705430994e-07
2.448014564082289e-07
2.32558318664736e-07
1.318263690718612e-07
1.5384569253131694e-07
2.624764306417636e-07
1.3495360071713757e-07
-6.117473901799888e-09
3.651330668026757e-08
3.0239850543387763e-07
3.830006845880938e-07
3.338785496705887e-07
1.5960144641181408e-07
1.3083368571203417e-07
3.898517043830115e-07
2.3089291055116793e-07
1.027392044197788e-08
1.0286873066057085e-07
1.7516859016116604e-06
1.6220788168323344e-07
1.1042401049931439e-07
1.8364694914831733e-07
-4.6162804068435454e-09
3.263332710782722e-07
5.265666369580227e-07
2.207165108788438e-07
-1.27309415570588e-08
2.3016380161946345e-07
1.4446283041970986e-07
4.405287973575305e-08
3.900615464823511e-07
1.3434429407052614e-07
2.1297909138241502e-07
3.921981419708677e-07
4.213799977334759e-08
4.0747682317607735e-08
3.065589838115356e-07
5.301010744750616e-07
3.039052420018984e-07
1.1037113335392922e-08
3.0716095658545465e-07
2.0897691925319663e-07
3.0085529380116265e-07
3.270365649663702e-07
4.5724414517231227e-07
3.9884784259978765e-09
6.796327387285825e-08
1.6512757733742298e-07
2.3267688469487503e-07
3.072343716290811e-07
2.620721822623942e-07
2.941016516661772e-07
9.529763437337858e-08
1.3769367935540815e-08
7.020879901044565e-08
4.405796813473303e-07
1.0882811104243331e-07
3.072887922650825e-07
2.1659936956582831e-07
-3.853034768483104e-09
4.859029268031397e-07
7.589992480519095e-07
5.691568122075141e-07
2.0492772091575335e-07
-9.30938314600471e-09
3.6789078754043184e-07
1.4087550741033114e-07
1.3426010255407087e-08
4.199057116340769e-07
4.329486186985174e-07
2.571428194443507e-07
-5.162540266936965e-09
3.242025585485249e-07
3.386787059018433e-07
2.0712134919443627e-07
4.158628206120727e-08
1.7667834282722523e-07
1.759694725977203e-07
2.2247457170164373e-07
1.1193695812660968e-07
1.0215503006536345e-07
7.296878628101433e-08
2.1005857993818703e-07
3.573515335672741e-08
7.91721441111166e-07
1.2396856211767671e-07
1.5363057650581603e-07
1.1953453892528623e-07
2.566940516945163e-07
3.8990154820971797e-07
1.3163796550430307e-07
2.3521138544458776e-07
1.6395770438146362e-07