# vtk DataFile Version 3.0
Inflated mesh
ASCII

DATASET UNSTRUCTURED_GRID
POINTS 189 double
 -0.16900000   0.04799998   0.03903846
 -0.16900003   0.04799999   0.38899994
 -0.18900000   0.04799998   0.03900003
 -0.18900000   0.02800003   0.03899999
 -0.18900000   0.04799999   0.01900001
 -0.16899998  -0.04000001   0.03900001
 -0.16900000   0.02800003   0.03900001
 -0.16900001  -0.13599998   0.40899992
 -0.16900001  -0.13599998   0.38899994
 -0.18900001   0.02799999   0.38899988
 -0.18900001  -0.13599998   0.38899994
 -0.16900003   0.04799999   0.40899992
  0.00000001   0.04799998   0.38899994
 -0.18900003   0.04799999   0.38899994
 -0.18900003   0.04799999   0.40899992
 -0.16900003   0.02934410   0.40899992
  0.00000000   0.02934409   0.40899992
  0.00000001   0.04799998   0.40899992
 -0.16900003   0.02800001   0.38899994
  0.00000000  -0.13599995   0.38899994
  0.00000000  -0.13599995   0.40899992
 -0.28350000   0.13599998   0.01900001
 -0.14175001   0.13599998   0.00000002
 -0.28350000   0.13599998   0.00000001
 -0.14175001   0.02013977   0.00000002
 -0.28350000   0.03013976   0.00000001
 -0.16900001   0.06799998   0.03900005
  0.00000000   0.06799998   0.03900006
  0.00000000   0.04799998   0.03900006
 -0.18900000   0.06799998   0.01900004
 -0.18900000   0.06799998   0.03900005
  0.00000000   0.04799998   0.01900005
 -0.16900000   0.06799998   0.01900004
 -0.14175001  -0.12799999   0.00000002
 -0.28349996  -0.12799999   0.01900001
 -0.28349996  -0.12799999   0.00000001
 -0.00000001   0.02013978   0.00000004
 -0.00000001   0.13599998   0.00000002
 -0.14175001   0.13599998   0.01900001
  0.00000000   0.06799998   0.01900005
 -0.28350000   0.03013976   0.01900001
  0.00000000  -0.12799999   0.01900002
 -0.16900000   0.04799998   0.01900004
 -0.14175000  -0.12799999   0.01900001
 -0.18899998  -0.04000001   0.01900001
 -0.16899998  -0.04000001   0.01900001
  0.18899998   0.02799999   0.38899988
  0.18899998   0.04799998   0.03900005
  0.18900001   0.04799999   0.38899988
  0.18899995  -0.04000000   0.03900003
  0.18899995  -0.04000000   0.01900003
  0.16899997  -0.04000000   0.03900003
  0.16899997   0.02800002   0.03900003
  0.18899998  -0.13599995   0.40899992
  0.18899998  -0.13599995   0.38899994
  0.16899997  -0.13599995   0.40899992
  0.16899997  -0.13599995   0.38899994
  0.16900000   0.02800001   0.38899988
  0.16900000   0.04799999   0.40899992
  0.16900000   0.04799999   0.38899988
  0.18900001   0.02934410   0.40899992
  0.16900000   0.02934409   0.40899992
  0.00000000   0.02800000   0.38899994
  0.14175001   0.13599995   0.00000003
  0.28350000   0.13599995   0.00000003
  0.14174998   0.02013977   0.00000003
  0.16900000   0.06799997   0.03900006
  0.18899998   0.06799997   0.03900006
  0.16899997   0.04799998   0.03903847
  0.18899998   0.06799997   0.01900005
  0.16899997   0.06799997   0.01900005
  0.28350000   0.03013976   0.01900003
  0.28350000   0.03013976   0.00000003
  0.00000000  -0.12799999   0.00000002
  0.18899998   0.04799999   0.01900003
  0.18899998   0.02800002   0.03900000
  0.14174998   0.13599995   0.01900003
  0.16899997   0.04799998   0.01900005
  0.28350000   0.13599995   0.01900003
  0.28349993  -0.12799999   0.00000003
  0.14174995  -0.12799999   0.01900003
  0.28349993  -0.12799999   0.01900003
  0.16899997  -0.04000000   0.01900003
 -0.18899998  -0.04000001   0.03900001
 -0.18900001  -0.13599998   0.40899992
 -0.18900003   0.02934410   0.40899992
 -0.00000001   0.13599998   0.01900002
  0.18900001   0.04799999   0.40899992
  0.14174998  -0.12799999   0.00000003
 -0.06324851   0.01829625   0.00767055
 -0.17900001   0.03799999   0.21401917
 -0.16900003   0.03867204   0.39899993
 -0.08450001   0.03867204   0.39899993
 -0.17900000   0.03800000   0.03900002
 -0.17900000   0.05799998   0.02900004
 -0.17900000   0.04799998   0.02900004
 -0.17900000   0.03800000   0.02900001
 -0.16537501   0.03406988   0.00950002
 -0.23625000   0.03906987   0.00950001
 -0.17900000   0.04799998   0.01900003
 -0.17899999  -0.00599999   0.02900001
 -0.17900001  -0.05399999   0.39899990
 -0.16900002  -0.05399999   0.39899993
 -0.17900002   0.02867204   0.39899990
  0.00000001   0.03867204   0.39899993
  0.08450001   0.03867204   0.39899993
 -0.17900003   0.03867204   0.39899993
 -0.17900003   0.03800000   0.38899994
 -0.16900003   0.02867205   0.39899993
 -0.08450001   0.02867205   0.39899993
  0.00000000   0.02867205   0.39899993
 -0.08450001  -0.05399997   0.39899993
  0.00000000  -0.05399998   0.39899993
 -0.16537501   0.10199998   0.00950003
 -0.15537501   0.10199998   0.00950003
 -0.07087501   0.10199998   0.00950003
 -0.23625000   0.10199998   0.00950003
 -0.16537501   0.04406988   0.00950003
 -0.07087501   0.03406988   0.00950003
 -0.15537501   0.04406988   0.00950003
 -0.14175001   0.07806988   0.00950001
 -0.07087501   0.04406988   0.00950003
 -0.15537501   0.03406988   0.00950003
 -0.14175001  -0.05393011   0.00950001
 -0.16537500  -0.00993012   0.00950002
 -0.15537500  -0.00993012   0.00950002
 -0.23625000   0.04906987   0.00950003
 -0.23624999  -0.00493012   0.00950001
 -0.16900001   0.05799998   0.02900005
  0.00000000   0.05799998   0.02900005
 -0.08450000   0.05799998   0.02900005
  0.08449998   0.05799998   0.02900006
 -0.17900000   0.05799998   0.01900004
 -0.08450000   0.05799998   0.01900004
 -0.00000001   0.03406988   0.00950004
  0.00000000   0.05799998   0.01900005
  0.07087499   0.03406987   0.00950004
  0.08449998   0.05799998   0.01900005
 -0.16900000   0.05799998   0.01900004
 -0.16537500  -0.08400000   0.00950002
 -0.15537500  -0.08400000   0.00950002
 -0.23624997  -0.08400000   0.00950001
 -0.00000001   0.04406988   0.00950004
 -0.00000001  -0.05393011   0.00950003
 -0.07087501  -0.05393011   0.00950003
 -0.00000001   0.10199998   0.00950004
  0.07087501   0.10199996   0.00950004
  0.07087499   0.04406987   0.00950004
  0.07087499  -0.05393011   0.00950003
 -0.17899999   0.00399999   0.01900003
  0.17899998  -0.05399998   0.39899990
  0.17899999   0.03799999   0.38899988
  0.17899999   0.02867204   0.39899990
  0.17899998   0.03799999   0.21401918
  0.17899998   0.03800000   0.03900004
  0.17899998   0.04799998   0.02900005
  0.17899996  -0.00599999   0.02900003
  0.16537496  -0.00993012   0.00950003
  0.23624998  -0.00493012   0.00950003
  0.17899996   0.00399999   0.01900004
  0.23624994  -0.08400000   0.00950003
  0.16537496  -0.08400000   0.00950003
  0.16899999  -0.05399997   0.39899990
  0.08449998  -0.05399998   0.39899993
  0.16900000   0.02867205   0.39899990
  0.17900001   0.03867204   0.39899990
  0.16900000   0.03867204   0.39899990
  0.08450000   0.02867205   0.39899993
  0.16537500   0.10199996   0.00950004
  0.15537499   0.10199996   0.00950004
  0.23624999   0.10199996   0.00950004
  0.16537498   0.04406987   0.00950004
  0.15537497   0.04406987   0.00950004
  0.16537498   0.03406988   0.00950003
  0.14174998   0.07806986   0.00950003
  0.15537497   0.03406987   0.00950004
  0.14174997  -0.05393011   0.00950003
  0.15537497  -0.00993012   0.00950003
  0.16899999   0.05799998   0.02900006
  0.23624999   0.04906987   0.00950004
  0.17899998   0.05799998   0.01900005
  0.16899997   0.05799998   0.01900005
  0.23624999   0.03906987   0.00950003
  0.17899998   0.04799998   0.01900004
  0.17899998   0.03800000   0.02900003
  0.15537497  -0.08400000   0.00950003
 -0.18233334   0.06133331   0.03233337
  0.18233332   0.06133331   0.03233339
  0.18233334   0.04178136   0.40233324

CELLS 711 3555
4     74    171    179    182
4    133     32     39    118
4     90      2      9     13
4     20      8    102    111
4    145     38    115     39
4     96     93      6     42
4    131     68     77    178
4    184     77     52    154
4    145     86     38     39
4    169     76    172     70
4    111    108    102     20
4     78     76    168     69
4     57     54    150    162
4    101      9      8     10
4     56    112    163     62
4    178     77    131    181
4    142    115     39    145
4     68    131     77     28
4     45    149    122     44
4    178     77    155     68
4    142     63    146     65
4     56    112     62     19
4    141     34     44    127
4     76    145     63    146
4     57     54    162     56
4     90      6     18      9
4    106     11     15     91
4      6     93      9     90
4     74    179     71    182
4     34     44    127     40
4     77    157    173    183
4    180     77    171    183
4    136    172    181     77
4     94     26     32     29
4    145     76     86     39
4    103     15    106     85
4     65    142    134    147
4     34    139    141     44
4     45    139     43     44
4    139     34     43     44
4    100     44     83      3
4     15    103    101     84
4    109    112     62    110
4     65     79     72    157
4      9    101     84     10
4     42     95    132     99
4    132     42    117    138
4     42      0     93      6
4     40    126     29     98
4     96     95     42     99
4     42     94    128    138
4    133    138    118     42
4     15     85    103     84
4    186     30     26     29
4     42     94    138    132
4     98     44     40    127
4    133     32    129     39
4     42     41     43     89
4    139    141     44    124
4     44    141    127    124
4     45    139     44    124
4     44    127     97    124
4     77     52    154     68
4     42    132    117     97
4    119     32     39     38
4    113     21    116     29
4    126     29     97    117
4     38    120    115     39
4     88     79     65    157
4     44    100     83      5
4     55     54    150     53
4    157     77    175     82
4     44    149     99     96
4     45    140    123     43
4     44    149    122     97
4     44    100    149     96
4    148    176     80     73
4    116     40    126     29
4    138    130    128     42
4    126    116     29    113
4    126     29    117    113
4     32     29     38    113
4     29     32    117    113
4    119     32     38    114
[...]
CELL_DATA 711
SCALARS cell_volume double 1
LOOKUP_TABLE default
1.7128114467436716e-06
6.435967110691732e-07
2.58749927036569e-05
3.675747773629576e-05
1.1647124751558795e-05
4.999992766061335e-07
2.8247821649624964e-06
4.999998440546748e-07
2.329424270456853e-05
3.814939233311043e-06
1.7464458876331916e-05
2.4115919816826423e-05
4.0999915532026635e-06
1.0250001166491488e-05
3.5701207135779567e-05
2.1125023628509505e-06
9.922345777563147e-06
6.4157501356738695e-06
1.5757562814101286e-06
4.1794737479982464e-07
2.0701099922564557e-05
7.14024183242265e-05
1.805758404172906e-05
1.3359944420533375e-05
1.0249995563537997e-05
2.5499948132847767e-05
5.913968560224186e-07
1.312641758652128e-05
2.283750442635721e-06
3.725704077543996e-05
1.5445859922483647e-06
3.51042125004771e-07
2.7950803414250037e-06
1.2500010756044197e-06
2.3294241093082287e-05
6.250008737322444e-07
1.7128136820499246e-06
1.507274014588155e-05
6.379994768201072e-06
3.120879594583607e-05
3.4000024312633697e-06
5.167009793710255e-06
1.7464456769206555e-05
5.785683825280046e-05
1.2299990241152366e-05
2.500002500753179e-07
3.5358450511685355e-07
2.283318681948111e-06
2.2837488375513967e-06
2.4999975007481766e-07
2.5000000007531334e-07
3.6919562710089975e-06
1.064652127614823e-05
9.722224068902076e-07
2.500000000753133e-07
1.0048498468912588e-05
4.225001961436798e-06
6.789803094087308e-05
1.2686771049347317e-05
1.354318016490258e-05
5.370064202857763e-06
7.5363707183413435e-06
1.0019198931010385e-06
3.510419122200237e-07
2.7772375801803946e-05
1.1647124691751804e-05
1.7128113141750668e-06
1.9844678008505434e-05
5.4310358478293646e-05
3.9000020000402734e-06
1.0874995531833048e-05
2.1266656007556123e-06
1.0999975500383463e-06
4.5144597816445695e-06
5.25253096553821e-07
1.0999975500383463e-06
2.708637809973643e-05
1.2087915667630616e-05
2.1125023631366517e-06
9.065945952416579e-06
9.922351486102857e-06
4.108332924580423e-06
3.499945033293872e-06
3.814935144869691e-06
2.5499941134851066e-05
2.4999954974500454e-07
1.4784924722177714e-06
2.4999983344578044e-07
2.0668011898640687e-06
2.4999958334671855e-07
2.066799372243637e-06
1.478492148784937e-06
2.8247819863276193e-06
3.5701219818400965e-05
1.3123548693175549e-05
2.4574974840709606e-05
1.0662261188670666e-05
4.731842138192277e-06
1.2299984388494635e-05
7.855573384429503e-05
3.2388755566932003e-07
4.997314949041757e-06
6.33401565597033e-07
1.0646524691824278e-05
2.1124997503507e-06
1.149940926215879e-06
4.3066869176192016e-07
1.4784967535010665e-06
1.0646523741095224e-05
2.112496980120978e-06
1.7464487518837235e-05
4.997306728616518e-06
3.7934062904711564e-05
2.112496480121811e-06
2.1557481200576846e-05
1.3367056142787214e-05
2.112496730121394e-06
1.0048500750343149e-05
9.922346231357365e-06
1.746445056880844e-05
9.065936953082852e-06
6.71774498850405e-05
1.746445254420862e-05
9.994606869590979e-06
5.100003937820582e-06
4.099993891277991e-06
9.994610494156993e-06
1.7464454702407184e-05
9.994608640969436e-06
7.536376314599971e-06
2.1125007051175796e-06
2.1125004551174697e-06
8.200004497530045e-06
2.199999555657516e-06
2.3683304823633336e-06
1.712813507582957e-06
9.922345777563143e-06
1.1647123509918263e-05
5.417275171287438e-05
3.499946111334815e-06
3.535849125068518e-07
4.108334412868532e-06
9.99460922643018e-06
5.4172744036318114e-05
2.5317709407009256e-05
2.7086367058807643e-05
2.500005000417532e-07
1.388617562090716e-05
2.4006872217373014e-06
1.0259639080551725e-06
2.49999916707503e-07
1.3450844462021316e-05
9.922350174618183e-06
2.500004167083364e-07
4.166668744796738e-07
9.722212032833439e-07
2.1562496907745858e-05
2.593462104400576e-05
2.457495364897676e-05
2.1249949294662124e-05
2.1324516311590525e-05
2.549996591630737e-05
8.75094975033856e-06
4.3999942472254575e-06
1.7900203106414538e-06
4.119958780461751e-05
3.120884032248009e-05
3.3999982825580833e-06
5.099999585860965e-06
1.0999993835155475e-06
2.4115917258950685e-05
1.5072757043731423e-05
5.4172737882266196e-05
1.797033927471624e-05
4.731830490986317e-06
5.805065877093002e-06
2.1125021131364016e-06
4.119958753918572e-05
5.207081770995992e-06
3.4755279325701764e-05
3.475527218206624e-05
2.199996612890532e-06
3.900001450402727e-06
8.200003012423572e-06
2.5317706058651664e-05
2.6229978888072674e-05
4.1794710305334146e-07
-1.0484257360626427e-05
4.224999251314832e-06
7.351494781992724e-05
0.00012592490065189952
0.00012409963627194718
8.750940597162692e-06
8.749029543412278e-06
2.0894916928243973e-06
9.99998428688576e-07
2.1124969801209776e-06
1.2299983606927272e-05
4.997306728616518e-06
1.0249987494909313e-05
1.1748909821175469e-05
5.281245682561083e-06
6.05355627337164e-06
2.499997500748177e-07
1.3126423513155992e-05
4.17626268119012e-07
2.5499953505347837e-05
8.750944548252763e-06
2.777777650543108e-07
8.333343655569512e-08
2.5000000007531784e-07
1.2500011264207407e-06
1.4999988975700286e-06
1.024890855767271e-05
7.499985768628403e-07
5.842926750343027e-07
6.250001779137947e-07
4.999996975399574e-07
7.499993190893566e-07
5.000002809585051e-07
4.649993867987428e-06
2.1999969170143905e-06
2.499997524048314e-07
7.536369005530031e-06
3.5104191222002374e-07
1.7128074311819267e-06
5.454202028304172e-07
5.709374571986003e-06
2.1238875744596305e-05
1.5929147077468503e-05
4.282023808046419e-06
6.25000638257692e-07
2.4999976894356733e-07
2.3249951695724028e-06
3.0989643053935115e-07
1.1528197807397534e-06
5.100003744422054e-06
5.100004219414513e-06
2.1999965477427462e-06
4.399995310677497e-06
3.4000013259692938e-06
3.2999975518132366e-06
1.0874995022737942e-05
1.0646521185302765e-05
1.0874992867811702e-05
2.0667996222432145e-06
4.099995223960255e-06
7.351494697269212e-05
7.197033017564116e-05
4.258594904362042e-06
4.349992251092248e-06
2.170702525370142e-06
6.200414772815623e-06
1.2775831754195377e-05
9.831970937027901e-07
6.200397173726912e-06
5.281243570975638e-06
6.053554161883008e-06
2.1124964801218114e-06
4.997303434795489e-06
1.2107104092237364e-05
1.1748929906692137e-05
1.2107104734404607e-05
1.025000572122479e-05
1.2300005400624225e-05
5.281242320977457e-06
6.0535506186244405e-06
5.969975016945374e-07
6.250013447996234e-07
2.499994623739986e-07
1.4784927279503198e-06
2.4439916191554607e-07
1.4924937630878213e-06
1.3123553379664569e-05
2.5997098169795303e-05
8.749032667737326e-06
8.833992442194114e-07
8.665978450102861e-07
2.4999953293833355e-07
2.4999958628131973e-07
3.492891566409175e-05
2.499995498495429e-07
2.499995834517927e-07
2.0667973063116294e-06
1.746445883600593e-05
2.1124969801209772e-06
2.066797556310957e-06
7.197032173016575e-05
4.224991597792166e-06
3.598516510726863e-05
2.1124969801668136e-06
3.598515873539314e-05
2.1124969801209467e-06
4.22499296024356e-06
2.112496730121363e-06
7.197029598880442e-05
7.197030895357155e-05
2.1124969801209467e-06
3.464497975866724e-05
1.7464458874744566e-05
6.928994546425202e-05
3.49517578464729e-05
6.928995242882765e-05
7.351491241741125e-05
7.351491243069799e-05
1.746445676383258e-05
3.6757467186910984e-05
3.492890310194644e-05
1.7464452538834643e-05
1.7464458830631947e-05
2.7662371976281395e-05
3.9316146327330116e-05
4.286260329242938e-05
1.6433327669614661e-06
1.3999781691950673e-06
2.7662362280770572e-05
4.1442076653576396e-06
1.884999263295796e-06
2.9207905409520164e-06
2.6719864693102842e-05
4.1402184294310865e-05
2.155748396291778e-05
4.140217726565574e-05
1.3359935064736232e-05
2.799682665742697e-05
1.8988301176726996e-05
2.799682557052181e-05
3.5358450511685355e-07
2.416668916925345e-07
3.546455499442285e-06
2.0544683797770097e-05
1.3999781691950673e-06
4.084164733983058e-06
2.795080648389644e-06
1.712813507582957e-06
4.8013744001243095e-06
2.9910241559670388e-06
1.388620095840501e-05
1.9074689403810233e-06
1.3999783827881414e-06
2.4166689677770117e-07
1.3999783827881414e-06
2.042085942947431e-06
2.0420852777715794e-06
9.922338934569102e-06
3.9795715478573305e-06
2.0701074191971066e-05
6.943100354666096e-06
1.9074679155567096e-06
1.984467984252885e-05
3.4256249933158846e-06
2.042084742570757e-06
9.922333102024944e-06
6.9430948650548886e-06
3.1900002856798134e-06
1.0633346992844985e-06
1.8744386959612054e-05
1.8342507367705596e-06
2.416668283551673e-07
2.8621971706595354e-06
2.4166683344032576e-07
2.042084742570757e-06
2.4389012136762907e-06
2.154063034669391e-05
5.245990392271966e-05
1.876514421740268e-05
1.4487897169200198e-06
5.431036518194044e-05
5.7856834217897875e-05
1.790021334641831e-06
1.5604417214500325e-05
1.063333463183005e-06
1.0633350663039038e-06
5.042438627930229e-06
1.4487902234775195e-06
3.7008775685106727e-06
1.063333834968933e-06
2.5254168217583286e-06
1.712811991351797e-06
1.3367059017145345e-05
9.065946851620174e-06
9.922352470248825e-06
1.7128084489836391e-06
4.119958556082507e-05
4.119958578872984e-05
1.1111831921936622e-05
2.794276219763461e-05
7.536370169202443e-06
7.536368456391257e-06
4.999999303896719e-07
8.450007766618036e-06
1.4360916319815453e-05
5.009600824389114e-07
2.4999983336344407e-07
8.45000490865243e-06
2.1125037253499516e-06
4.225003450506935e-06
2.1125021131364016e-06
4.225004705959741e-06
8.450003403586739e-06
4.225005219939266e-06
4.233116040127126e-06
-1.6477610659208884e-05
6.337504282574704e-06
4.225004719938708e-06
1.0574662932891664e-05
8.450003100467291e-06
1.0578726537182134e-05
4.225003564085185e-06
6.337502782573696e-06
2.5000025000291787e-07
3.035396992714114e-07
6.250000001181825e-07
1.2395845653280891e-07
2.500000000029179e-07
1.2395845653280907e-07
3.2180007364164925e-07
7.165455462194267e-06
2.112500000040024e-06
4.100002968155814e-06
-2.9118390432582384e-07
2.699119062432157e-07
2.508742653366527e-06
2.690170440131411e-05
1.5072755330920105e-05
2.9446628073048224e-06
2.1124980930943276e-06
3.691955043787119e-06
2.11250000086496e-06
2.5355613492283294e-06
3.0966543146344607e-06
3.691956109825363e-06
6.975468590291079e-05
3.0145510761982717e-05
3.217976144059954e-07
3.0966543146347894e-06
4.0999999695774875e-06
2.11249950086496e-06
7.1654516345786225e-06
3.6919545334933112e-06
1.2141613466091981e-07
2.500000001212595e-07
3.217999818725129e-07
2.5000000012125937e-07
2.112502363524897e-06
2.1125021135246463e-06
1.214161346609198e-07
1.1395078710824505e-06
2.1125021135246467e-06
3.4755272869258176e-05
2.1266650270679314e-06
3.47552636293278e-05
2.6268569187114365e-05
1.790021334641831e-06
5.2070762866883805e-06
2.43890175278865e-06
1.7900221833490779e-06
2.3683320885585956e-06
1.7900221833490779e-06
1.9968439960411113e-05
1.6785552179997303e-05
1.2686770122981696e-05
1.3543179176003496e-05
2.0701092126314963e-05
4.140216289567783e-05
3.4256247549360977e-06
1.7128125008384095e-06
9.922339945481911e-06
4.14021899388911e-05
1.7128125008384093e-06
2.7086367063457593e-05
1.3450844680371736e-05
1.0662246135283656e-05
3.0145491126827006e-05
5.245993868659125e-05
1.0770323300631079e-05
2.6229972409266233e-05
5.2459946101791535e-05
2.622997123258716e-05
1.0770308120133542e-05
1.3359941495211632e-05
2.6719873837981632e-05
9.922354219677693e-06
2.6719878225707905e-05
2.6719871989512568e-05
1.984471123925837e-05
9.922345075438836e-06
1.1647130003641143e-05
9.922334179833224e-06
9.922348577520604e-06
1.712813507583126e-06
2.7772352229180347e-05
2.0519312042064197e-06
2.699119872357675e-07
9.922344064751098e-06
1.98446684345654e-05
5.417273287399859e-05
6.029098576492792e-05
1.5072746699013014e-05
3.4877328990914106e-05
2.7086375923791734e-05
1.5072744986202943e-05
3.8225010014130395e-06
1.0999975503321272e-06
8.680837340796914e-07
1.0999975503321272e-06
2.199996208260185e-06
1.544584900202753e-06
1.2299978937604705e-05
1.2299988867832837e-05
2.066801189864063e-06
5.167009617014497e-06
2.443995057051955e-07
2.170703528471101e-06
6.110003685708633e-07
8.74903864582247e-06
8.749020421254852e-06
1.2775827749619441e-05
6.200404979187688e-06
6.200410991139052e-06
9.831990177541148e-07
8.582009594675831e-07
2.5874997703807374e-05
2.5499950520363842e-05
1.3126429063482859e-05
1.3123562406241752e-05
1.3123535069375815e-05
2.4999991670750296e-07
4.1762670653174836e-07
2.5499964792945697e-05
8.750949236039578e-06
1.312642829203275e-05
1.5641398292775978e-06
1.4999992168526962e-06
1.2500006488956498e-06
2.361112472836887e-07
7.499998422483551e-07
5.842932585699002e-07
3.400002774874982e-06
1.0999993835155477e-06
2.199996334987461e-06
3.899997906608817e-06
3.8999981128155325e-06
1.5445856412058395e-06
2.794278706999967e-05
2.6268564943584694e-05
3.0891668116466207e-06
7.53637578595314e-06
1.7900203106414538e-06
2.1238877389494695e-05
3.725704689205293e-05
1.9968444091696165e-05
1.354319122311417e-05
1.5929157921721306e-05
4.649992348739292e-06
2.199997641287954e-06
2.1999965215197827e-06
1.152817946773402e-06
2.6757526188259623e-06
1.6785554348330307e-05
1.268677805840876e-05
1.8057588115365534e-05
1.3543191226032456e-05
6.379995230542248e-06
3.1208825069280946e-05
5.370063624537592e-06
1.5072744040836415e-05
1.2686778057363792e-05
4.349990860377112e-06
1.0874994603161711e-05
4.258602421047585e-06
1.7464491698138888e-05
3.5701226148255364e-05
3.6757454130191806e-05
1.7464450564737688e-05
3.5985152151846584e-05
3.598523070167408e-05
3.675747140517529e-05
9.999998448889952e-07
2.066800944455713e-06
3.389557355265696e-05
3.043753349668309e-06
6.337502389819735e-06
2.0668009444557074e-06
3.277328923430957e-07
2.0894967947286593e-06
7.584023420689088e-07
1.7226758894166792e-07
5.913988802077611e-07
3.3333322757877564e-07
6.0535662315002364e-06
2.1125004542544435e-06
2.556011702965565e-07
7.163991293806454e-07
1.7464487518836733e-05
2.11249648012178e-06
1.746445470240693e-05
2.1125007051175186e-06
2.1124964801217797e-06
1.7464491698138386e-05
2.7662370980069374e-05
4.286259559036621e-05
3.9316131204109705e-05
2.7662364914558603e-05
1.3999793990129362e-06
1.6433344940061249e-06
4.144209775333473e-06
2.9207927340453075e-06
1.8850013628528752e-06
2.7996823799422244e-05
1.8988282589317444e-05
1.3359931718402477e-05
2.7996822965371093e-05
1.7128097339315215e-06
3.510417739626612e-07
2.0544681545969043e-05
1.3999793990129362e-06
3.5358491250685176e-07
1.907468951158037e-06
2.042084615516173e-06
6.943087807561044e-06
3.5700472370279527e-07
3.6136222123143243e-06
1.399979541133465e-06
1.3999795411334648e-06
2.41667117270417e-07
1.0633359484890542e-06
1.5604418323282066e-05
3.5464522599027406e-06
2.4166687051798436e-07
2.070107629934299e-05
9.922335189134521e-06
3.979574471143428e-06
1.9074691451859345e-06
6.943087809645467e-06
1.0633327996766424e-06
1.834255977530385e-06
1.5072751661215503e-05
1.7970335435732524e-05
2.0420842592867012e-06
2.4166707511303093e-07
1.0633361296623265e-06
2.4166682836055996e-07
2.622997148631497e-05
5.245993182419062e-05
2.438905112154096e-06
1.4487930208516697e-06
1.5072751077584091e-05
3.700873837078014e-06
1.0633325299945094e-06
5.0424456703297856e-06
1.4487930200752522e-06
4.233113552342774e-06
4.225000636149196e-06
5.009602924223336e-07
1.250000530948275e-06
1.1249986439976653e-06
4.282026359076849e-06
5.709372998770985e-06
1.2087915846541552e-05
9.922350311928787e-06
9.065940681455396e-06
3.098959566952817e-07
3.035393830950772e-07
6.250006398835315e-07
6.250003499633248e-07
5.833331831269275e-07
2.1125009555926718e-06
1.1395055383263377e-06
2.1124983430941614e-06
1.2141599726048227e-07
2.5000033350216505e-07
2.112502318090765e-06
3.2179765248856356e-07
1.2141599726048224e-07
1.712811251767312e-06
2.525417232955617e-06
1.1111833731208022e-05
7.536375823369784e-06
7.536375294722986e-06
1.712809538955441e-06
5.454190221622209e-07
1.239584676551066e-07
6.249997896599121e-07
2.5000027845033475e-07
2.1999954094821264e-06
5.454188982035701e-07
1.2395834369654066e-07
7.500000218504068e-07
3.2999975371722653e-06
2.4999975021821065e-07
1.0999986509636008e-06
2.4999975021821076e-07
1.099998650963601e-06
2.1266645061872338e-06
1.7900206245151306e-06
4.51446795657016e-06
1.7900206245151306e-06
2.438905539807408e-06
7.777777759534286e-07
9.722223820505836e-07
2.2222162645492084e-07
2.7777798414754206e-07
7.777775023114377e-07
9.72220947652174e-07
6.111108970956335e-07
7.638885524607665e-07
3.2388819699875126e-07
3.332217612401917e-07
1.1499421801063942e-06
1.1686098129173197e-06

