# vtk DataFile Version 3.0
Inflated mesh
ASCII

DATASET UNSTRUCTURED_GRID
POINTS 503 double
 -0.00358572  -0.00372000  -0.03554837
  0.00650611   0.01858610   0.04096963
  0.01126302   0.02049434   0.03585270
  0.00639676   0.02084513   0.03543035
  0.00393151   0.00613710  -0.03956541
  0.00836610   0.00678225  -0.03977282
  0.00445958   0.00347247  -0.03850132
 -0.00604504   0.01514490   0.03489521
 -0.00903044   0.00666362   0.03907256
 -0.00247962   0.01313986   0.04097357
  0.00142549   0.01663503   0.04123527
 -0.00509560   0.00504684   0.04280270
 -0.00104389   0.00935009   0.04369497
  0.00761130  -0.01705529  -0.03395780
  0.00692221  -0.01438777  -0.03565183
  0.01084042  -0.01556353  -0.03365153
  0.00980055  -0.01876030  -0.03145122
 -0.00639451  -0.00753352   0.04189445
 -0.00318676  -0.00629890   0.04482532
 -0.00637631  -0.00577176   0.04285219
  0.00513241  -0.00083687   0.04471987
  0.00367596   0.00086724   0.04461942
 -0.00078939   0.00376485   0.04445698
  0.00253915  -0.00075400   0.04564836
  0.00165792   0.00591529   0.04489567
 -0.00946676   0.01134589   0.03469924
 -0.01714070   0.00626067   0.02775755
 -0.01006792   0.00390599   0.03892764
 -0.01691908   0.00234469   0.03005320
 -0.01110714   0.00032449   0.03829606
 -0.00608394   0.00196806   0.04312380
 -0.00233798  -0.00316247   0.04584425
 -0.00685605  -0.00230986   0.04316752
 -0.00187717   0.00007052   0.04543628
  0.00217685  -0.00290149   0.04653124
  0.00306582  -0.00589486   0.04643298
  0.00786578  -0.00529556   0.04549847
  0.00694855  -0.00294931   0.04527690
  0.00729889  -0.00051514   0.04481848
  0.01633420   0.00036240   0.04701079
  0.01269956   0.00051497   0.04650838
  0.01324817  -0.00473864   0.04589935
  0.00933287   0.00096301   0.04532809
  0.00903815   0.00330528   0.04529071
  0.01192822   0.00432417   0.04767384
  0.00793848   0.00510961   0.04588965
  0.01029818   0.00876167   0.04917113
  0.00799307   0.00694786   0.04794296
  0.00672432   0.01002444   0.04832148
  0.00483919   0.00716172   0.04645935
  0.00373837   0.01317185   0.04606013
  0.00322070   0.01042029   0.04625331
  0.00866262   0.01243178   0.04830642
  0.00673807   0.01537873   0.04576149
  0.01097661   0.01435513   0.04712214
  0.01306798   0.01628932   0.04477818
  0.01438754   0.01322404   0.04724213
  0.01667206   0.01529779   0.04428900
  0.01451704   0.01818140   0.04050931
  0.01880904   0.01719203   0.03854460
  0.01492978   0.01990787   0.03454958
  0.00491382   0.02391436   0.02620580
 -0.00259408   0.01898823   0.03345576
  0.00146396   0.02061954   0.03390398
 -0.00587965   0.02251592   0.02293169
 -0.01607311   0.01006403   0.02628935
 -0.01341957   0.01511431   0.02456194
 -0.02201575   0.00778015   0.02057519
 -0.02272463   0.00235495   0.02234363
 -0.02237553  -0.00251500   0.02386737
 -0.01946475  -0.00702707   0.02722701
 -0.01605729  -0.01083243   0.02957353
 -0.01192672  -0.01354067   0.03205156
 -0.00758515  -0.01523179   0.03433481
 -0.00387795  -0.00931534   0.04268849
  0.00023497  -0.01022370   0.04391704
 -0.00043627  -0.00907056   0.04453453
 -0.00327155  -0.01715929   0.03446621
  0.00409911  -0.01418228   0.04024126
  0.00277725  -0.00826721   0.04561454
  0.01065101  -0.01289054   0.04208006
  0.01359352  -0.01106753   0.04345192
  0.00876907  -0.00775909   0.04511069
  0.01561743  -0.00682716   0.04563561
  0.01062056  -0.00540141   0.04548471
  0.01764515  -0.00846749   0.04424354
  0.01890387  -0.00286450   0.04630828
  0.02245698   0.00011558   0.04453213
  0.01931367   0.00366021   0.04716521
  0.01471089   0.00544764   0.04829566
  0.01872283   0.01055179   0.04661754
  0.01575697   0.00897218   0.04848494
  0.01202874   0.01121370   0.04883331
  0.02258444   0.01022313   0.04272907
  0.02158264   0.01452413   0.03896966
  0.01999187   0.01328918   0.04355153
  0.02402103   0.01087756   0.03816075
  0.02214429   0.01505057   0.03252682
  0.01877528   0.01885542   0.02905516
  0.02471493   0.01086636   0.02792070
  0.02251632   0.01569189   0.02413865
  0.01934871   0.02048173   0.01923197
  0.01486719   0.02432300   0.01612558
  0.01481213   0.02169391   0.02628048
 -0.00191762   0.02793457   0.01402434
 -0.00081498   0.02448421   0.02298230
 -0.00735497   0.02515283   0.01693523
 -0.01344912   0.02244793   0.01603585
 -0.01006323   0.01916046   0.02360100
 -0.01900337   0.01910123   0.01445503
 -0.02175152   0.01380022   0.01639080
 -0.02557620   0.00269812   0.01751356
 -0.02665280  -0.00345770   0.01645645
 -0.03030211  -0.01119432   0.00847831
 -0.02560496  -0.01704873   0.01154086
 -0.01932342  -0.02057992   0.01599903
 -0.01310983  -0.02290740   0.01930307
  0.00141320  -0.01799680   0.03470457
  0.01058249  -0.01608621   0.03851884
  0.01174965  -0.01785502   0.03530078
  0.01614432  -0.01419111   0.03946396
  0.01523079  -0.01212337   0.04222427
  0.01954340  -0.01005217   0.04179804
  0.02242467  -0.00645606   0.04141569
  0.02042437  -0.00552606   0.04428619
  0.02488361  -0.00308297   0.03695191
  0.02447499   0.00041349   0.04146188
  0.02560008   0.00632127   0.03665277
  0.02415672   0.00629510   0.04195673
  0.02183834   0.00564744   0.04538461
  0.02562365   0.00159068   0.03675743
  0.02608663   0.00558335   0.02219679
  0.02543971   0.01122866   0.01856733
  0.02388024   0.01648151   0.01493618
  0.02050477   0.02163509   0.01275103
  0.01075476   0.03122668   0.00139698
  0.00340657   0.03254475   0.00156152
  0.00389936   0.02787951   0.01471327
 -0.00385944   0.03242649   0.00278064
 -0.01062356   0.03087915   0.00400862
 -0.02174110   0.02203408   0.00742893
 -0.02886295   0.00999206   0.00886356
 -0.02573841   0.01638629   0.00817070
 -0.03104670   0.00333416   0.00901228
 -0.03187270  -0.00380673   0.00846217
 -0.00838978  -0.02617739   0.01755729
 -0.00352704  -0.02896275   0.01410832
  0.00499720  -0.02178575   0.02836781
  0.00283413  -0.02804426   0.01605991
  0.00954741  -0.02367102   0.02310275
  0.01483331  -0.02084059   0.02482145
  0.01612181  -0.01695685   0.03457305
  0.01976890  -0.01812206   0.02192337
  0.02039901  -0.01399933   0.03424832
  0.02051192  -0.01175075   0.03858578
  0.02349613  -0.00778617   0.03717138
  0.02488509  -0.00640089   0.02289496
  0.02591571  -0.00046927   0.02179980
  0.02308190  -0.01242095   0.02392337
  0.02552931  -0.00833716   0.01712098
  0.02691261  -0.00070944   0.01606862
  0.02700118   0.00508359   0.01654341
  0.02952208   0.00484780   0.00789958
  0.02865074   0.01125984   0.00592515
  0.02631010   0.01801828   0.00439682
  0.02336153   0.02470244  -0.00022716
  0.01776023   0.02867144   0.00041576
  0.00426459   0.03373286  -0.00589039
 -0.00373211   0.03373310  -0.00218693
 -0.01124480   0.03298110  -0.00274695
 -0.01814130   0.02969648  -0.00208127
 -0.02369918   0.02431136  -0.00102301
 -0.01669304   0.02656296   0.00702901
 -0.02748136   0.01763863   0.00239537
 -0.03211885   0.01138464  -0.00295269
 -0.03089111   0.01094780   0.00330917
 -0.03459868   0.00415364  -0.00218421
 -0.03321388   0.00377844   0.00406376
 -0.03537572  -0.00340169  -0.00225976
 -0.03384271  -0.00376783   0.00425192
 -0.03385295  -0.01113990  -0.00050288
 -0.03256647  -0.01123615   0.00384319
 -0.03088944  -0.01830146  -0.00127845
 -0.02895222  -0.01814455   0.00490199
 -0.02558202  -0.02453556  -0.00035116
 -0.01859603  -0.02847877   0.00240565
 -0.02309853  -0.02310074   0.00777732
 -0.00987282  -0.02903787   0.01090456
 -0.01590476  -0.02621229   0.01126510
 -0.00375225  -0.03223272   0.00520439
  0.00324731  -0.03120785   0.00864394
  0.00999149  -0.03073893   0.00740424
  0.01512477  -0.02472261   0.01503846
  0.02064967  -0.02070665   0.01393130
  0.02415776  -0.01422920   0.01615508
  0.02939088  -0.01020549   0.00397678
  0.03044229  -0.00330810   0.00361388
  0.03102998   0.00420312   0.00061563
  0.02799686   0.01884873  -0.00390238
  0.03017378   0.01200294  -0.00391326
  0.02452613   0.02485852  -0.00546611
  0.01868614   0.02926313  -0.00513279
  0.01924744   0.02863332  -0.01154079
  0.01199635   0.03219033  -0.00664352
  0.00454428   0.03263818  -0.01432043
 -0.00319923   0.03225966  -0.01702782
 -0.00377693   0.03413072  -0.00893326
 -0.01109930   0.03189834  -0.01577492
 -0.01152273   0.03326487  -0.00946927
 -0.01870302   0.02979727  -0.01266938
 -0.01881180   0.03026361  -0.00808725
 -0.02442071   0.02511402  -0.00941978
 -0.02859914   0.01827400  -0.01044288
 -0.02857232   0.01826964  -0.00368234
 -0.03199814   0.01150211  -0.00968277
 -0.03438061   0.00450592  -0.00922044
 -0.03515767  -0.00274751  -0.00917303
 -0.03403928  -0.00999718  -0.01141976
 -0.03444989  -0.01072274  -0.00504412
 -0.03134801  -0.01696162  -0.01200776
 -0.03158066  -0.01791391  -0.00581043
 -0.02699054  -0.02337446  -0.01105673
 -0.02684496  -0.02416915  -0.00660941
 -0.02108911  -0.02842488  -0.01175897
 -0.02075996  -0.02914635  -0.00742958
 -0.01998997  -0.02918918  -0.00308868
 -0.00512368  -0.03403701  -0.00375641
  0.00316018  -0.03367971  -0.00086664
  0.01039506  -0.03286960  -0.00365835
  0.01040274  -0.03228543   0.00177439
  0.01705766  -0.02915376   0.00421253
  0.02235611  -0.02399687   0.00533498
  0.02735482  -0.01834620   0.00177102
  0.03025062  -0.01151164  -0.00198801
  0.03117746  -0.00369414  -0.00237506
  0.03065199  -0.00478733  -0.00978527
  0.03005441   0.00197946  -0.01482534
  0.03139982   0.00389501  -0.00747159
  0.02837385   0.01785974  -0.01143722
  0.03013984   0.01093269  -0.01113875
  0.02504895   0.02394459  -0.01205350
  0.02380821   0.02105356  -0.02021584
  0.01859095   0.02603783  -0.01981770
  0.01184956   0.02772773  -0.02185152
  0.01198712   0.03081322  -0.01507350
  0.00450129   0.02996145  -0.02091150
 -0.00270069   0.02841597  -0.02395482
 -0.00953165   0.02786961  -0.02363169
 -0.01611972   0.02599375  -0.02292101
 -0.01796472   0.02861038  -0.01700567
 -0.02236399   0.02272320  -0.02012783
 -0.02378979   0.02400036  -0.01589596
 -0.02792499   0.01787818  -0.01482608
 -0.02794468   0.01467166  -0.01877618
[...]
CELL_DATA 1661
SCALARS cell_volume double 1
LOOKUP_TABLE default
7.947422421509034e-08
2.707552271897272e-08
3.4745451628465366e-07
3.40821511507463e-08
1.4879689321855516e-07
1.8908517547865942e-08
5.26481929888598e-07
3.524861339282694e-07
1.7134757988331906e-07
3.58751996759017e-08
5.93068398031909e-09
2.488531036041718e-07
1.0467739303658649e-07
1.3502411570761744e-07
1.8684972539610894e-07
4.272698663868876e-08
1.805342791495293e-07
2.3781697098115393e-07
9.338628302029252e-08
1.5849985565820625e-07
4.5253222736281265e-08
8.054052915245892e-08
1.8151179022411547e-07
7.463895799593196e-08
8.703184248040385e-08
3.910251258162945e-08
1.1264906577534778e-07
4.359125525552873e-08
6.442160928378399e-08
4.397082601759205e-08
6.154241707895684e-08
1.0942443186221566e-07
1.1567500018741548e-07
1.3787212228007695e-07
2.2448022905147495e-08
8.37728369200827e-08
1.0746585553555892e-08
3.0710502376107387e-07
1.482929016593844e-07
4.552349706370321e-08
1.066892764530263e-07
2.2282696656167525e-07
4.025312221646529e-08
1.4267656515340562e-07
1.6417521217507475e-07
8.025993694292212e-09
9.236603114234231e-08
1.1881630978909607e-07
1.7204778313513343e-08
1.9991534916109005e-08
3.961956566357716e-08
9.71449256774428e-09
3.584831936222909e-08
7.966909121676219e-08
1.7851038815336244e-07
5.414157451137815e-09
8.406780400805986e-08
1.9554801848449737e-08
6.8995663935198775e-09
3.8607161589325375e-08
1.7020602105967345e-08
5.342881172599978e-07
2.498342916402464e-07
4.140461579800898e-08
1.7464693277179269e-07
1.220023173975962e-08
7.868547516995172e-08
1.1743582210101526e-08
8.932799136694783e-09
6.989208335384581e-08
3.775314498208562e-07
3.8097851378297775e-08
1.1748633202278479e-07
8.183152960841187e-08
8.166203779189255e-08
6.740879959296689e-08
8.536638070689859e-08
4.323416980142315e-08
1.1608171162201349e-08
5.934495975242018e-08
4.486810955702734e-09
1.03682997984683e-07
1.899553089160661e-08
3.2350058656754514e-08
4.3142814766249406e-07
3.707367586653127e-07
5.841876198849767e-07
1.734629580684141e-07
1.8481893954860568e-08
1.6777155466245046e-08
1.267099077460817e-07
1.7625936028205784e-07
2.8704211919816382e-08
1.581408328415317e-07
5.494564068429829e-08
6.159170226877216e-08
2.8780141900397696e-08
1.0546806732578727e-07
3.590689765536045e-08
8.572885707089777e-09
3.544491387815971e-08
4.70549913400776e-07
1.285545598343316e-07
9.59991118783903e-08
1.4409899835158727e-07
3.4704576240744666e-08
1.589229631962673e-08
7.569843702438422e-08
2.081269479080846e-07
1.258808136972604e-08
7.942773692991254e-08
5.7389264018137957e-08
1.345706891888061e-07
9.62743742906772e-09
4.1708258049537e-09
7.492939176271193e-08
9.881874361667195e-08
1.3202570954237242e-08
4.2224030945306645e-07
1.4558347756864098e-08
1.2256470779716596e-07
8.213300282991434e-08
8.82861977281771e-08
2.364646961391857e-08
1.0088450168215083e-07
2.2549640086279373e-08
1.559346618573806e-08
4.391761128329086e-08
2.136483747600477e-07
2.455441554262435e-07
1.1702859013963338e-07
1.971457240766043e-07
8.712040293086393e-08
2.3419081269003763e-08
1.8520984545925668e-07
1.5124788704360183e-07
1.4744595194143007e-07
8.965257719661099e-08
3.142140082969147e-08
9.716384717941505e-08
6.802739151680961e-07
6.152708055460053e-09
7.709775904869042e-08
9.543363402041498e-08
1.8781592587884773e-08
1.0615104175857311e-07
1.1764914071640804e-07
1.926794673362093e-07
1.0780958812329863e-07
8.088929821044e-08
9.428122712791779e-08
1.3436217762462581e-07
8.915035794094664e-09
8.29591758723411e-08
1.4535506650582846e-08
1.0790034030017414e-07
1.051332453197529e-07
1.3060053786011945e-07
1.0962429802649606e-07
1.54985034906411e-07
6.342232436876223e-08
3.420792818882106e-07
4.01544250788591e-08
3.2944791141319323e-07
1.4650585732325322e-08
2.1039694927453306e-08
1.7441362118815203e-07
8.9824792405683e-09
3.114813853432331e-07
5.9510435648520034e-08
6.05308640197449e-08
3.428788188635792e-08
5.277694431929511e-07
1.18218162106288e-07
4.143208198720864e-08
1.4760659244198985e-07
3.5834254307310664e-08
5.5191461025716654e-08
3.5917277295387806e-07
1.0449484498557694e-07
9.019330875779212e-08
9.96101758335702e-08
1.0438503023585427e-07
1.5428156085401062e-07
6.38524630822932e-08
1.163283766258886e-07
1.4017223636860542e-07
1.579823881214217e-07
1.0023406226886415e-07
9.692488809480578e-08
1.5765555094427852e-08
7.387295338039522e-08
1.083380431479771e-07
9.76933979997038e-08
2.1936425754636696e-08
6.514480643410491e-09
3.908144535560718e-08
1.2623144351078933e-07
6.6454157160912126e-09
1.0879265655103339e-07
1.0387907433567228e-08
4.379834126289606e-08
1.0668220956334788e-07
2.6335581951652516e-07
1.4956999373958632e-07
1.1509330714676761e-07
8.376705907896915e-08
2.194312942996229e-08
1.253429655223942e-08
2.3313798261467144e-08
1.3553958778462556e-07
1.0561003167609484e-08
3.6309741572635914e-07
6.790604977732157e-08
7.096845924749977e-09
2.593566468174807e-08
8.841098285402658e-08
7.431810611308307e-08
7.615447519572519e-09
6.84863377617524e-07
9.166392380889392e-08
2.3455716135284497e-07
2.250826890562025e-07
7.043910691009496e-08
2.143202441470932e-07
2.1038199172497267e-07
7.97639134913247e-08
1.2815234264244854e-08
9.197873468333248e-08
3.36909378289789e-08
1.2587773785964443e-07
8.090071359193018e-08
2.0838804641521432e-08
2.1428294378596006e-08
1.7338326045502766e-07
1.7482625995763977e-07
5.9980091032244755e-09
7.305786674484942e-09
1.4459120615273794e-07
1.0602885232875666e-07
1.3343549382657434e-08
4.946965040807116e-08
1.6471038459481707e-07
3.8840984237990214e-07
7.334434562845249e-09
7.014724328758806e-08
1.3608688299522455e-07
9.344712551654805e-09
1.98557438767828e-07
1.1375111227417967e-07
1.2798808561732644e-07
1.6871022689965368e-07
6.252653210809556e-08
5.204026567779496e-09
2.2097509789581527e-08
1.7693754442871448e-07
8.174521265691865e-09
2.5243414348766803e-07
2.987826473566611e-08
1.5588259452556218e-08
6.332777342507129e-08
1.1133363524897362e-07
2.5870639564709836e-08
2.9015764494458317e-07
4.929291229925757e-07
1.789449483211431e-08
7.250173033454989e-09
7.870948975680339e-08
8.712279272702702e-08
1.6462650152093068e-08
1.5110947765140848e-07
2.4587448079109914e-08
8.922980639973872e-08
2.566316248236793e-07
1.3313476614643085e-07
4.407938910954301e-08
1.1435258801059013e-07
1.1379371244424515e-08
3.267504653711632e-07
2.1953182040861938e-08
1.0714596065546386e-07
1.0001687740460357e-07
5.620807677860823e-08
2.623053922623261e-07
1.241893724682855e-07
1.1855008426669106e-07
3.707529518809817e-08
5.10333420362795e-07
1.2821384862838697e-07
3.020546186446363e-08
2.2088871299912113e-07
1.0791069642451485e-07
5.513114556373704e-07
1.251180637924105e-07
2.5754962633416154e-08
3.0048431999000505e-08
1.301163106874561e-07
1.9075987024259186e-08
4.244146374863136e-07
1.2104621185460522e-07
2.4521078459153334e-08
1.472276767137317e-07
4.618608588618532e-08
9.81823204372955e-09
1.2412627868041237e-07
1.9865269932935578e-07
1.9792094494136155e-08
1.0282009120040669e-07
4.982277705968156e-07
2.3114955666262734e-08
1.3927750838031573e-07
5.595242481899651e-09
1.8144692064810567e-07
6.31748082314945e-08
2.2176522523987472e-08
2.5609137121056144e-07
1.0543470574449898e-08
1.3254191632411973e-07
3.2819883263467326e-08
1.6369505666264233e-08
1.9093232410492818e-07
3.167912705779226e-08
1.0735651350015928e-07
5.922567468583505e-07
8.123783523604344e-08
7.873725341500982e-08
5.877337864369261e-08
1.3954146325002692e-07
1.1087981457586038e-07
1.9121403136739653e-07
1.3466793977995568e-07
2.5025314446244857e-07
7.232345466079316e-08
6.7918024174143e-08
9.091141942268443e-08
1.0727147470276395e-07
2.053633058359468e-07
7.972741245823708e-08
1.1538810142586654e-07
1.0210873302444269e-07
4.385383955609486e-08
2.6878452504627352e-08
1.0319987122733826e-07
2.0608438586676005e-08
7.526521395856696e-08
1.7103843024775312e-08
5.771887484841873e-07
1.6807264645855482e-07
1.1979132448924321e-07
3.759245259010267e-07
5.047742808838937e-07
1.5095732517387354e-08
1.385849671570781e-07
3.06697127612882e-08
2.262748758938865e-08
1.3800800081737274e-07
1.0703040430462028e-07
1.3132896576060623e-07
3.388991583200296e-08
3.487295197759135e-08
4.142270020930881e-08
1.5822556509574663e-07
1.0029511516566718e-08
1.290305054243584e-07
1.7488545560956946e-07
6.516476333630464e-08
2.7391720233076925e-07
1.4926333198338001e-07
3.6109397582391135e-08
8.804313939500024e-08
9.83082769088972e-08
6.710973600023236e-08
3.372416088463801e-09
1.0244343763566066e-07
1.1442916737031712e-07
1.83496331765391e-07
4.0171885802718225e-07
1.745008057989931e-08
1.9400431860236447e-07
4.208303480920557e-08
3.475986845030237e-08
2.5283090803315083e-08
2.718486864440062e-08
3.063959092183426e-08
2.7431313587677232e-08
6.682747850772081e-08
7.527569775664277e-08
1.6533887695157642e-07
4.0758560742434774e-07
1.8986669753551747e-07
7.209649988636367e-08
7.973517188989413e-08
4.9490365832757354e-08
9.245414709281418e-08
1.7712132067279585e-08
4.784754546128091e-08
3.6851201042076347e-09
1.971561525101266e-07
4.0342762563025834e-08
4.533941643599982e-08
2.6966745986203522e-08
2.5885552682007888e-08
5.399777314125032e-08
5.2214421264375174e-08
1.8280570659406703e-07
8.028904076042573e-08
1.7927954592493898e-07
8.214321527326902e-08
8.66367436442434e-08
1.3400667647655067e-07
1.3058005299845898e-07
2.4079476407751786e-07
7.273175604712086e-08
1.7409129497214324e-08
1.9511453428004928e-08
1.5884192474267707e-08
4.965646513303863e-07
6.037865143292005e-08
6.382989452495678e-08
2.7415114273133226e-08
1.3123328785822297e-07
5.950224757923946e-08
6.629057627105629e-09
1.9968364483467858e-07
9.362818318451151e-08
2.0917761151893538e-07
3.522670221184353e-07
1.2952884440945674e-07
1.2050965370737823e-07
4.846612754220987e-07
1.5839564410265133e-07
2.7701741600174177e-08
1.2703517529983157e-08
1.02330642105424e-07
2.5530042656193137e-07
3.8011201887326864e-08
6.8188257220343e-07
1.237726443699899e-07
3.023765531466228e-08
2.2053611438491027e-07
4.110039457406211e-07
7.423851005822224e-09
1.6372214815799313e-07
7.17628340774588e-08
2.58288774126919e-07
2.234134217170108e-07
6.486058943532118e-07
7.633562132988404e-08
3.48440191579403e-08
1.206658699297562e-07
4.3883556636140565e-08
1.6948628934892676e-08
4.044158555657256e-08
2.0010549688713686e-08
7.78713849444756e-09
5.36843494075115e-08
1.746691626184425e-07
2.0643301086548854e-07
4.906742110831218e-08
1.9476583340423883e-09
9.037199433382336e-08
1.0223951186423286e-07
5.0228345302338e-07
4.1674060854143224e-07
1.9224973502009338e-07
8.557184801468833e-08
1.0735997424089794e-08
2.08262969087656e-08
1.4681064063418158e-07
8.995204110694196e-09
4.7600455432952916e-08
1.9489564253674688e-07
3.3756918853130697e-07
1.1439079859292356e-08
1.998502247728627e-07
2.051335989605663e-08
6.842492809202557e-08
6.876764852000478e-08
1.9035083220022054e-07
5.440668556488295e-08
1.1589169898732604e-07
1.4890550078086658e-07
5.450195556990477e-07
1.9505473741323714e-07
3.5680790211418257e-07
8.351843759303014e-09
1.738466790692355e-08
1.2325699140423014e-08
6.508347629009659e-08
6.594456563541367e-08
2.4391003912506454e-08
4.798341674444457e-07
1.5284710343208206e-08
8.435016511917877e-09
2.3264345558632855e-07
1.7428749052310564e-08
8.20927581982042e-08
1.3570100344621176e-07
1.425518886285522e-07
5.740772575826712e-07
6.829978423734406e-08
3.2930822589200626e-08
1.585569990833785e-07
4.204696975274977e-08
2.2604989544621892e-08
1.5181426320091295e-07
4.370983204957e-07
3.781285101397649e-08
7.53947523585057e-08
3.043920193136026e-07
1.4352351203655367e-08
4.64159863289312e-08
9.568255819849129e-08
1.1445528941872217e-07
4.511166315622859e-08
1.0038090928429693e-07
6.57987810897437e-08
1.597343480261518e-08
1.6845008441582802e-07
2.3077162634548278e-08
1.530343147964979e-08
9.89423191681175e-08
6.066137644477407e-07
7.945452174413275e-08
2.044526547716542e-07
8.740497409210839e-07
1.069981034348955e-08
2.831808845056189e-07
5.670164928512875e-08
2.3134549972550142e-07
1.2949453547398192e-07
1.5462416792897033e-08
2.4917891844794565e-07
1.0037850860125794e-08
1.8769601853862763e-08
9.081211222915376e-09
2.0206385371803766e-07
1.7005921820445666e-08
2.0027598882574388e-07
6.362165029100992e-08
1.445006006955523e-07
9.739233670864155e-08
6.772886818883817e-08
6.164531799625577e-08
1.3495229170225241e-08
7.093907717628587e-08
2.5727393047388327e-07
1.5971185800309992e-08
7.399256009261896e-08
3.4175192220041704e-08
1.3925707090425937e-07
1.5844918945642126e-07
1.3004984056200806e-07
1.9661883652583822e-07
1.0076518801324763e-08
1.238558608235484e-08
6.486415031323574e-08
6.749432472441637e-08
6.756249037626876e-09
9.385207468706233e-09
1.5311687218301501e-07
7.851104702309605e-08
9.232701883341949e-08
1.0084788147814066e-08
1.7666430313098064e-07
2.8399393388517418e-08
5.128914754964404e-07
1.1385825583447423e-07
1.0551528231811005e-07
1.6050289338984942e-08
2.2959978487214725e-09
1.510399571636432e-08
4.783529597014173e-08
1.875165135665616e-07
4.9268308550544046e-08
1.2392359048104201e-07
5.489842917115227e-09
1.007181761688665e-07
1.2946387507051178e-07
2.5876245541821233e-08
1.4542995411562298e-08
6.034010921644239e-08
2.7890041465689076e-08
4.7324359892149435e-08
2.867576838526959e-08
1.3411974003562628e-08
6.390683098562196e-08
3.944819120665584e-08
7.161901913671078e-08
1.2184815036705774e-07
1.5446447319104526e-07
1.4952712936510212e-07
6.95773341287679e-08
2.9009382645927713e-08
1.3791652462509655e-07
4.517088964060551e-08
1.0766060614202851e-07
2.2398327437958033e-08
6.111831910024396e-07
1.4835821799872988e-07
1.225719568827899e-07
2.050298733344631e-07
1.9427790289756024e-07
5.659771236648995e-07
1.936881403265213e-08
2.237497543128846e-07
6.186522182648361e-08
1.2450873471695752e-07
5.061491073245978e-09
1.5251995819248059e-07
5.539490640200893e-08
6.026462646461844e-09
9.998022774970054e-08
1.0637504952983399e-07
6.08237107772235e-08
5.227595888406036e-09
8.183272142080459e-08
7.885418629247688e-08
1.4002321767581032e-08
8.032255091317666e-08
1.5565722618448822e-07
2.063988749474278e-07
9.507615763555133e-08
3.699909634100755e-08
1.7897113102888392e-07
1.8914976764753488e-07
3.748462351155512e-08
1.0152030492246357e-06
4.624073947712438e-08
1.2177275370939835e-08
2.1880084992200225e-08
4.036299877853125e-09
7.706042059082375e-08
1.3182849001386429e-08
2.7328538396145227e-08
2.6687575765394076e-08
5.979090830045333e-08
2.7572762296551746e-09
1.1533537079192443e-08
7.228544166637972e-08
3.3694575564415767e-07
1.1002152049379069e-07
1.4831766109546628e-07
1.4207198808904173e-07
1.2460328067273633e-07
3.521363815646185e-08
1.8689051682099773e-08
8.476279108991114e-08
5.384025485165249e-07
1.3515450622388098e-07
7.290378766977985e-08
1.5928363185413545e-07
1.2088346894517235e-08
2.381898946139054e-07
2.637212395257741e-07
9.70031936574905e-08
1.1174746456591753e-07
7.019451388581977e-08
6.30468202920864e-09
3.94635903326356e-07
6.90157346165456e-08
1.0902692626369877e-06
2.545027439608343e-07
2.7156750712066837e-07
8.581172444937655e-10
2.0483018784936804e-08
4.97513196039972e-09
1.718421172047389e-08
3.006600545484489e-07
2.7139657106206867e-08
1.7505007466567412e-08
2.5898169479408974e-08
8.085619165033507e-08
8.586336867872927e-09
2.340321703381307e-08
2.9469139267274896e-08
2.6347170488083676e-08
5.7174868695890875e-08
1.2676465074101368e-07
1.1627343651945878e-07
1.9146196011178073e-08
3.516192285164845e-08
1.1760980881641771e-08
2.346423958268373e-08
1.9209405337067107e-08
1.7093995678734557e-08
4.2598678552946946e-08
1.3278894303916603e-08
1.505064998191304e-07
2.631724202706327e-08
4.3662606043688145e-08
4.750490646700562e-07
4.647391661664325e-08
3.617171123122003e-09
6.7535347988573e-08
3.623465632530366e-07
6.396797448517934e-07
9.924687858630081e-09
9.371183675605314e-08
1.093987570152609e-08
1.551799028288495e-07
3.4688845346129494e-07
2.4683099036873007e-08
3.8733468724130213e-07
1.9913699412281877e-07
1.3961776704066187e-07
2.732578003334617e-07
9.416676518389057e-08
2.3398985247364855e-07
2.179713086016784e-08
1.5769260901426022e-07
1.2080801683789246e-08
1.1282961302647392e-07
2.2615707792898967e-08
4.932807076103818e-09
3.651078975939026e-08
1.2038485013325995e-08
1.0404681659137138e-07
1.9388067317101324e-07
5.820945423023806e-08
6.769632396217156e-08
3.7189768902283354e-08
4.513176589993334e-08
1.6222022783424014e-07
1.2438423598652518e-07
8.195671138775478e-09
2.7671160571222643e-07
3.844158654452271e-08
1.9061456654526973e-08
1.894529278096036e-07
6.44068636780747e-08
1.1727691811385661e-07
6.915559645555136e-09
4.7869942480552255e-09
5.594512812623928e-07
7.831318234456762e-08
7.049347156118514e-08
1.2520381944414336e-08
3.177386817088119e-07
1.3526951388967044e-07
1.4264674898420314e-07
4.744733886287379e-07
5.802947811825304e-08
1.86432139483665e-08
1.351547246081415e-07
2.1601695950478865e-07
1.9338187313371357e-07
1.862439325776698e-07
9.267350549087882e-09
1.0001603962592263e-08
6.052290581961968e-08
1.3565815660534768e-08
4.3546823923395806e-08
6.037961193370313e-08
1.9607760873566323e-07
7.353863035687592e-08
2.8425731797956268e-08
2.0089796351345512e-07
3.000388557347015e-07
1.9408834668280466e-08
4.3920970883943325e-08
4.989020290797412e-09
6.364072723223107e-08
3.880557158810484e-08
6.685400256087278e-08
9.586777670567407e-08
2.989329718851049e-08
4.81912097507153e-09
1.846988639373742e-07
1.932816423297064e-07
1.77919597052764e-07
1.2854717304266638e-07
1.4735588892213698e-07
1.82615218783787e-07
1.0873866174640981e-07
1.5489168898584578e-08
3.019776244692255e-07
7.447488605096357e-09
6.337888094251021e-09
1.2206864879503002e-07
7.785547282009563e-08
5.0060303516080234e-08
1.357914022429295e-07
2.1448910404742822e-07
9.415941559415833e-08
1.063373531314303e-08
8.305342872225547e-09
7.090181475030621e-08
1.8702556932435914e-07
5.685851280205054e-08
7.67392442895741e-08
1.1480669969116364e-07
3.085327683475573e-08
1.912567984631863e-09
4.48898221312306e-07
1.6522246653465132e-07
7.490289705430994e-07
5.769301873396792e-08
1.0022750677477292e-07
2.8004417646039507e-09
7.137309119712815e-08
5.8269748499745175e-08
2.769532790005245e-08
5.986629533885409e-09
1.4194771289286572e-08
1.1575330110650134e-07
1.5862082576731166e-07
3.338785496705887e-07
2.3908217528842898e-08
5.18779997870846e-08
1.5450347506154705e-07
4.8636663741257864e-08
1.027392044197788e-08
2.9192926675466472e-08
1.0839014831548843e-06
5.845314215898632e-08
1.3334744272796977e-08
5.2516222559634863e-08
2.131600175113066e-09
1.2290028323517744e-07
2.0898332483121018e-07
3.699171860864309e-08
2.4905455866940563e-09
1.0653198360894361e-08
8.510163273754031e-08
4.405287973575305e-08
3.900615464823511e-07
4.522533963413185e-08
5.409960455603242e-08
1.8886925058088225e-07
1.0395001030579158e-08
1.4600281160571977e-08
1.4744595274901598e-07
1.780197696023663e-07
3.039052420018984e-07
1.1037113335392922e-08
1.8783308802158712e-07
5.744989907340007e-08
8.018248227093838e-08
1.0075243133657494e-07
2.0636514514501281e-07
3.9884784259978765e-09
1.6000053581305127e-08
6.201384383969485e-08
5.690778452664926e-08
1.0839553099564062e-07
8.824451767864771e-08
1.503883909549223e-07
6.123029710799362e-08
1.3769367935540815e-08
1.8783199879202426e-08
1.8104158067423664e-07
1.0882811104243331e-07
9.799037083963186e-08
9.450748175194683e-08
1.7310326233597697e-09
4.859029268031397e-07
7.589992480519095e-07
5.691568122075141e-07
4.2362613665655896e-08
1.5300585491927997e-09
1.6608740129847964e-07
2.973357000000823e-08
1.3426010255407087e-08
1.6042638093874985e-07
2.401302690389116e-07
7.448670438091863e-08
6.302238142451968e-09
1.2125813568568333e-07
1.2603269745152202e-07
2.0712134919443627e-07
4.158628206120727e-08
3.398897298453531e-08
2.9658251869470334e-08
6.593253382158826e-08
1.5722216427516633e-08
1.0215503006536345e-07
1.608158484044525e-08
5.954385662982589e-08
2.2786973716899718e-08
3.5099017028284937e-07
2.1847080333867158e-09
1.5363057650581603e-07
3.26170561172162e-08
7.664039682214201e-08
1.426996729095023e-07
2.8215731848254157e-08
9.668186569071333e-08
6.390994115398636e-08
2.590300701216513e-08