# vtk DataFile Version 3.0
Inflated mesh
ASCII

DATASET UNSTRUCTURED_GRID
POINTS 7319 double
 -0.14317460   0.16436255   0.06820308
 -0.14453812   0.16436255   0.06682808
 -0.14315426   0.16436255   0.06545308
 -0.14179103   0.16436255   0.06682808
 -0.14317454  -0.16535865   0.06820308
 -0.14453806  -0.16535865   0.06682808
 -0.14315420  -0.16535865   0.06545308
 -0.14179097  -0.16535865   0.06682808
 -0.08235056   0.21556970   0.11401716
 -0.08097556   0.21691006   0.11371043
 -0.08235056   0.21825041   0.11340369
 -0.08372556   0.21691006   0.11371043
 -0.08235050  -0.21603428   0.11413333
 -0.08097549  -0.21732117   0.11364902
 -0.08235050  -0.21860807   0.11316471
 -0.08372550  -0.21732117   0.11364902
 -0.08235049  -0.18911447   0.04621029
 -0.08097549  -0.19038703   0.04568953
 -0.08235049  -0.19165958   0.04516876
 -0.08372549  -0.19038703   0.04568953
 -0.08435099   0.16062535   0.02287947
 -0.08235049  -0.18743677   0.04241775
 -0.08097549  -0.18865956   0.04178896
 -0.08235049  -0.18988235   0.04116017
 -0.08421380   0.16250035   0.02100949
 -0.08372549  -0.18865956   0.04178896
 -0.08407661   0.16062535   0.01913952
 -0.08235049  -0.18543102   0.03901792
 -0.08097549  -0.18657242   0.03825122
 -0.08235049  -0.18771382   0.03748453
 -0.08421380   0.15875036   0.02100949
 -0.08372549  -0.18657242   0.03825122
 -0.08235049  -0.18311600   0.03597248
 -0.08097549  -0.18416037   0.03507809
 -0.08235049  -0.18520473   0.03418371
 -0.08372549  -0.18416037   0.03507809
 -0.08235049  -0.18052400   0.03328029
 -0.08097549  -0.18145819   0.03227136
 -0.08235049  -0.18239237   0.03126243
 -0.08372549  -0.18145819   0.03227136
 -0.08235049  -0.17768700   0.03094118
 -0.08097549  -0.17850070   0.02983280
 -0.08235049  -0.17931439   0.02872441
 -0.08372549  -0.17850070   0.02983280
 -0.08235049  -0.17463697   0.02895599
 -0.08097549  -0.17532270   0.02776418
 -0.08235049  -0.17600842   0.02657238
 -0.08372549  -0.17532270   0.02776418
 -0.08235049  -0.17140625   0.02732632
 -0.08097549  -0.17195897   0.02606730
 -0.08235050  -0.17251168   0.02480827
 -0.08372550  -0.17195897   0.02606730
 -0.08235049  -0.16802777   0.02605431
 -0.08097549  -0.16844432   0.02474392
 -0.08235050  -0.16886087   0.02343353
 -0.08372550  -0.16844432   0.02474392
 -0.08235049  -0.16453497   0.02514231
 -0.08097549  -0.16481356   0.02379583
 -0.08235050  -0.16509216   0.02244935
 -0.08372550  -0.16481356   0.02379583
 -0.08235049  -0.16046830   0.02456745
 -0.08097549  -0.16058914   0.02319861
 -0.08372550  -0.16058914   0.02319861
 -0.08235049  -0.15734209   0.02440763
 -0.08097549  -0.15734287   0.02303263
 -0.08235049  -0.15734364   0.02165763
 -0.08372550  -0.15734287   0.02303263
 -0.08235049  -0.15371056   0.02458913
 -0.08097549  -0.15357251   0.02322107
 -0.08235049  -0.15343447   0.02185302
 -0.08372550  -0.15357251   0.02322107
 -0.08235049  -0.15010141   0.02513890
 -0.08097549  -0.14982523   0.02379192
 -0.08235049  -0.14954905   0.02244495
 -0.08372550  -0.14982523   0.02379193
 -0.08235049  -0.14654880   0.02605846
 -0.08097549  -0.14613579   0.02474696
 -0.08235049  -0.14572279   0.02343545
 -0.08372550  -0.14613579   0.02474696
 -0.08235049  -0.14308657   0.02734922
 -0.08097549  -0.14253901   0.02608795
 -0.08235049  -0.14199145   0.02482668
 -0.08372550  -0.14253901   0.02608795
 -0.08235049  -0.13974811   0.02901268
 -0.08097549  -0.13906969   0.02781669
 -0.08235049  -0.13839127   0.02662071
 -0.08372550  -0.13906969   0.02781669
 -0.08235049  -0.13656636   0.03105057
 -0.08097549  -0.13576262   0.02993495
 -0.08235049  -0.13495888   0.02881932
 -0.08372549  -0.13576262   0.02993495
 -0.08235049  -0.13357393   0.03346518
 -0.08097549  -0.13265260   0.03244451
 -0.08235049  -0.13173126   0.03142383
 -0.08372549  -0.13265260   0.03244451
 -0.08235049  -0.13080312   0.03625946
 -0.08097549  -0.12977440   0.03534714
 -0.08235049  -0.12874569   0.03443482
 -0.08372549  -0.12977440   0.03534714
 -0.08235049  -0.12828644   0.03943721
 -0.08097549  -0.12716286   0.03864463
 -0.08235049  -0.12603928   0.03785206
 -0.08372549  -0.12716286   0.03864463
 -0.08235049  -0.12603809   0.04303565
 -0.08097549  -0.12485276   0.04233877
 -0.08235049  -0.12366743   0.04164188
 -0.08372549  -0.12485276   0.04233877
 -0.08235050  -0.10902883   0.07385822
 -0.08097550  -0.10788222   0.07309935
 -0.08235050  -0.10673560   0.07234048
 -0.08372550  -0.10788222   0.07309935
 -0.08235050  -0.10742752   0.07587817
 -0.08097550  -0.10649543   0.07486733
 -0.08235050  -0.10556333   0.07385648
 -0.08372550  -0.10649543   0.07486733
 -0.08235050  -0.10527207   0.07730620
 -0.08097550  -0.10469227   0.07605942
 -0.08235050  -0.10411246   0.07481264
 -0.08372550  -0.10469227   0.07605942
 -0.08235050  -0.10281371   0.07803296
 -0.08097550  -0.10260706   0.07667359
 -0.08235050  -0.10240041   0.07531420
 -0.08372550  -0.10260706   0.07667359
 -0.08235050  -0.10022046   0.07807415
 -0.08097550  -0.10037406   0.07670776
 -0.08235050  -0.10052766   0.07534137
 -0.08372550  -0.10037406   0.07670776
 -0.08235050  -0.09763767   0.07744468
 -0.08097550  -0.09812753   0.07615989
 -0.08235050  -0.09861739   0.07487511
 -0.08372550  -0.09812753   0.07615989
 -0.08235050  -0.09520720   0.07615011
 -0.08097550  -0.09600176   0.07502792
 -0.08235050  -0.09679632   0.07390574
 -0.08372550  -0.09600176   0.07502792
 -0.08235050  -0.09313868   0.07426155
 -0.08097550  -0.09413104   0.07330980
 -0.08235050  -0.09512339   0.07235805
 -0.08372550  -0.09413104   0.07330980
 -0.08235051  -0.05862660   0.03338402
 -0.08097551  -0.05965244   0.03246845
 -0.08235051  -0.06067828   0.03155287
 -0.08372551  -0.05965244   0.03246845
 -0.08235051  -0.05654697   0.03117695
 -0.08097551  -0.05749352   0.03017961
 -0.08235051  -0.05844007   0.02918228
 -0.08372551  -0.05749352   0.03017961
 -0.08235051  -0.05431609   0.02928267
 -0.08097551  -0.05514578   0.02818622
 -0.08235051  -0.05597548   0.02708976
 -0.08372551  -0.05514578   0.02818622
 -0.08235051  -0.05195020   0.02769287
 -0.08097551  -0.05264939   0.02650892
 -0.08235051  -0.05334858   0.02532495
 -0.08372551  -0.05264939   0.02650892
 -0.08235051  -0.04949157   0.02642730
 -0.08097551  -0.05004450   0.02516837
 -0.08235051  -0.05059744   0.02390945
 -0.08372551  -0.05004450   0.02516837
 -0.08235051  -0.04698287   0.02550427
 -0.08097551  -0.04737127   0.02418526
 -0.08235051  -0.04775966   0.02286625
 -0.08372551  -0.04737127   0.02418526
 -0.08235051  -0.04446649   0.02494012
 -0.08097551  -0.04466985   0.02358024
 -0.08235051  -0.04487320   0.02222036
 -0.08372551  -0.04466985   0.02358024
 -0.08235051  -0.04192778   0.02474796
 -0.08097551  -0.04198040   0.02337397
 -0.08235051  -0.04203301   0.02199998
 -0.08372551  -0.04198040   0.02337397
 -0.08235054   0.19010934   0.02474741
 -0.08097555   0.19017471   0.02337397
 -0.08235054   0.19024009   0.02200052
 -0.08372554   0.19017471   0.02337397
 -0.08235054   0.19118580   0.02484560
 -0.08097555   0.19144417   0.02349509
 -0.08235054   0.19170254   0.02214458
 -0.08372554   0.19144417   0.02349509
 -0.08235054   0.19213854   0.02512284
 -0.08097555   0.19264206   0.02384335
 -0.08235054   0.19314559   0.02256386
 -0.08372554   0.19264206   0.02384335
 -0.08235054   0.19300975   0.02556204
 -0.08097555   0.19373860   0.02439610
 -0.08235054   0.19446743   0.02323016
 -0.08372554   0.19373860   0.02439610
 -0.08235054   0.19377260   0.02614218
 -0.08097555   0.19470398   0.02513066
 -0.08235054   0.19563536   0.02411915
 -0.08372554   0.19470398   0.02513066
 -0.08235054   0.19440155   0.02684010
 -0.08097555   0.19550845   0.02602438
 -0.08235054   0.19661534   0.02520867
 -0.08372554   0.19550845   0.02602438
 -0.08235054   0.19487480   0.02763305
 -0.08097555   0.19612220   0.02705461
 -0.08235054   0.19736962   0.02647616
 -0.08372554   0.19612220   0.02705461
 -0.08235054   0.19519329   0.02857605
 -0.08097555   0.19651549   0.02819866
 -0.08235054   0.19783768   0.02782127
 -0.08372554   0.19651549   0.02819866
 -0.08435094  -0.16061436   0.02287947
 -0.08421376  -0.15873936   0.02100949
 -0.08407657  -0.16061436   0.01913952
 -0.08421376  -0.16248935   0.02100949
 -0.08350072   0.16250035   0.02100949
 -0.08350072   0.15875036   0.02100949
 -0.08235054   0.16276404   0.02200045
 -0.08097554   0.16276404   0.02337397
 -0.08372553   0.16276404   0.02337397
 -0.08235054   0.16276404   0.02474751
 -0.08372550  -0.21621357   0.11070594
 -0.08097549  -0.21621357   0.11070594
 -0.08235050  -0.21492726   0.11119175
 -0.08235049  -0.16248935   0.02100949
 -0.08244517  -0.22197714   0.11053476
 -0.08235056   0.21947530   0.10800976
 -0.08235056   0.22197774   0.11053476
 -0.08235056   0.21947530   0.11305977
 -0.08174527   0.21947530   0.11305977
 -0.08174527   0.21947530   0.10800976
 -0.08174527   0.22197774   0.11053476
 -0.08295591   0.21947530   0.10800976
 -0.08235056   0.21488288   0.11101557
 -0.08097556   0.21622263   0.11070646
 -0.08372556   0.21622263   0.11070646
 -0.08295591   0.22197774   0.11053476
 -0.08295591   0.21947530   0.11305977
 -0.08235056   0.21522630   0.11251637
 -0.08097556   0.21656635   0.11220844
 -0.08372556   0.21656635   0.11220844
 -0.08372553   0.16062535   0.02337397
 -0.08235054   0.16058181   0.02474752
 -0.08097554   0.16062535   0.02337397
 -0.08222528   0.16062535   0.01913908
 -0.08235054   0.15875036   0.02100949
 -0.08235054   0.16250035   0.02100949
 -0.08120009   0.15875036   0.02100949
 -0.08120011   0.16062535   0.01913888
 -0.08120011   0.16062540   0.02287967
 -0.08120011   0.16250035   0.02100949
 -0.08235054   0.15947343   0.02200044
 -0.08235054   0.15947324   0.02173052
 -0.08350072   0.16062535   0.02287952
 -0.08336954   0.16062535   0.01913930
 -0.08235054   0.16177714   0.02200045
 -0.08235054   0.16177736   0.02173055
 -0.08324620   0.21668990   0.11059953
 -0.08322817   0.21696496   0.11052679
 -0.08145205   0.21698542   0.11052210
 -0.08147993   0.21671425   0.11059395
 -0.08235056   0.21743438   0.10983811
[...]
CELL_DATA 22212
SCALARS cell_volume double 1
LOOKUP_TABLE default
2.6898494209433877e-10
9.296346159833326e-10
9.214782018979173e-10
1.336538736775004e-09
1.4924622890833264e-10
1.684214552187503e-09
1.304876472395836e-09
4.1710698718357394e-10
1.2274912849604052e-09
7.963330911611587e-10
1.2550150996239943e-09
1.7215180227335625e-10
5.893973634585982e-09
1.1817270486312555e-09
5.191472999625015e-10
1.3950760393857396e-10
2.5915991837795814e-10
2.59233748436796e-10
6.265375975145832e-10
9.848911238749891e-10
2.0334511026876076e-10
5.783942895729236e-10
1.6193391884883483e-09
2.0334511026875807e-10
2.9800210224101453e-11
3.20957565263374e-09
1.7960911868515834e-10
1.684224151406255e-09
1.3233871098708228e-09
1.2537997989687588e-09
6.056080443907354e-11
5.721406791145922e-10
1.4979697354687396e-09
5.730301831375011e-10
2.605796625172866e-10
3.96635659400568e-10
1.2256319130229062e-09
5.783984960768385e-10
1.2356948965166618e-09
1.89488181093738e-10
3.846088899583337e-10
1.0000270392263678e-10
2.8104763049443844e-10
1.289322528538562e-10
1.2656529208125108e-09
1.1549237855730243e-10
8.264602591245424e-11
1.362302459783192e-09
6.670158895354215e-10
1.1042910104294427e-08
8.60299357134565e-11
3.681808831699204e-08
1.3365274194882294e-09
1.227488134514584e-09
1.2752667726537687e-10
1.3233871098708435e-09
6.552512828830579e-10
5.634061472573753e-10
1.2921022558125126e-09
1.1808421585583281e-09
9.904979222416697e-10
1.207913326927079e-09
6.048975777395831e-10
8.108480975374992e-10
3.4344437263791127e-10
1.55320790458952e-10
5.730301831604097e-10
8.758334972638402e-10
9.955248180395816e-10
6.737373593104622e-10
1.219881475398366e-10
1.0945729101725069e-08
6.670158895354169e-10
8.603232261387656e-11
2.917267334000002e-09
1.2755795286391552e-09
6.724406920316836e-10
1.2256254809333198e-09
1.8447011834770825e-10
6.022234266583333e-10
6.376619451831862e-10
6.217724894687542e-10
7.014525525247616e-10
8.702382613833323e-10
3.325407935571076e-10
3.300201721621116e-10
9.904979222416695e-10
6.682711461020803e-10
7.900116722841606e-11
5.8137124489584e-10
2.174411581375024e-10
8.901305290043692e-10
6.737387276503597e-10
8.411827036687474e-09
1.337921501773737e-08
2.5923600178115415e-10
3.921252558772074e-11
6.563747953679074e-10
9.848911238750092e-10
6.731896590145825e-10
1.9413946698286058e-10
8.901229888323428e-10
9.999609588722037e-11
3.300194246424738e-10
8.761925443124975e-10
6.158811821887117e-10
2.235437755272564e-08
2.438721963791688e-10
6.552465159507826e-10
1.2755908552750007e-09
2.979826379953213e-11
8.485360587229193e-10
4.323996600825001e-09
3.162030392734586e-08
2.1832360503314744e-10
6.208736490000081e-10
6.4192129686966256e-09
2.3505451268910798e-08
1.1385632500229262e-09
1.0779780102238093e-10
4.29358645887509e-09
1.2196733459625013e-09
4.203635428208331e-10
4.0490475646041865e-10
1.2049111124168722e-08
1.2033763753458464e-09
1.199289543031247e-09
8.953848873749989e-10
6.376665827583267e-10
5.744492884395847e-10
1.2368357627912616e-09
8.69866414152086e-10
5.45366194896346e-10
1.476696456553798e-10
6.208736490000081e-10
1.0229420843755234e-09
2.0244996191525793e-10
1.0945729101725139e-08
6.682711461020811e-10
2.2033374115440015e-10
2.160045958162184e-09
9.506381219958326e-10
2.9172580605624906e-09
1.8586286222683704e-10
7.989688503499978e-10
8.411888214056213e-09
4.311239967378805e-09
1.3715908701458373e-09
8.420752179082138e-10
7.828980553625015e-10
6.022199524916653e-10
9.207863026083348e-10
6.412466659958356e-10
3.7720901692400664e-10
1.1880220853416685e-09
1.5532192007291637e-10
2.438721963791688e-10
4.497511636811309e-11
1.0835231568028649e-08
1.423412326788311e-10
5.513811190642175e-10
2.099379523622181e-10
9.552025733250004e-10
1.2891976078860088e-10
3.0243653818402453e-09
9.689640569812495e-10
5.762058245980885e-10
9.955248180395837e-10
2.695685039439881e-10
1.1736870754125077e-09
8.70236874879168e-10
1.5557373510892462e-10
9.73076440141668e-10
9.461346300312543e-10
1.4738144002926174e-10
2.591872831321365e-10
2.2337673757756366e-11
1.2059075591749977e-09
2.0993710988028892e-10
1.3233871098708439e-09
1.3428135975833374e-09
9.214782018979149e-10
4.86542639572917e-10
3.3002257234375044e-10
4.0541712545495347e-10
4.483757812073458e-10
2.591621715897888e-10
1.555737351089254e-10
6.07355742374194e-10
1.423412326883709e-10
6.68272743141668e-10
4.29357050075001e-09
2.2033354980873071e-10
6.2580489919089035e-09
2.592360017811538e-10
8.698637009333356e-10
4.203635428208313e-10
2.6057966188270994e-10
1.336538736775004e-09
1.4066321123708217e-09
1.2274912849604052e-09
4.1189515283154994e-11
5.724891382873417e-10
1.2920904040730218e-09
1.3715933963187426e-09
1.02294208438698e-09
6.218738868604114e-10
1.225620083989597e-09
6.531060221763846e-10
1.292109198251946e-09
4.765299169805497e-11
1.2921091982519491e-09
1.1888934007958196e-09
6.328298082562477e-10
1.207922111751279e-09
1.0124287557124074e-10
5.87527969225484e-09
1.2408301682001616e-08
1.12747455929165e-10
1.4766824557151127e-10
1.4066321123708219e-09
1.4767043321480563e-10
9.617506133912453e-11
6.552465157112691e-10
5.679826028479113e-10
3.0110997624583554e-10
1.414518288302561e-08
1.255033354521841e-09
2.979852249870234e-11
1.3714389634916585e-09
5.724933018749988e-10
1.188018294489587e-09
1.2410267326875006e-09
1.2045932733228379e-08
5.878311870985557e-10
1.181735643324826e-09
1.5908621459503802e-09
1.2530945322359968e-09
1.2274881345145903e-09
7.014562936250027e-10
1.1442813582291632e-09
3.9139220443125256e-10
8.963713327271413e-11
6.265420820312477e-10
1.3715993358833244e-09
1.3715933963187442e-09
3.5842508478440493e-10
4.892625794899475e-11
1.1992982651370097e-09
9.169061593954166e-11
1.12747455929165e-10
1.1415708038825749e-10
1.2530945322359997e-09
1.1992982651370214e-09
2.2137759241945868e-09
5.453691009919161e-10
7.995866714572936e-11
6.208736490000081e-10
6.137399853062507e-10
6.557257259887273e-10
6.1373998530625e-10
1.1808507466976606e-09
8.585443438062484e-09
6.257567675093568e-10
5.868435377062422e-10
1.1880182944895873e-09
1.1385632500229276e-09
1.2274941702375036e-09
5.692846935645892e-10
5.744492884395856e-10
1.1808358551687424e-09
8.407341019000004e-10
8.967569536979159e-10
1.423412326788337e-10
2.438721963791688e-10
6.670158895354169e-10
1.5557688278186473e-10
1.1930075483791779e-09
1.304876472395836e-09
1.1548250638374997e-09
8.963713327271278e-11
1.406630296064571e-09
4.865391010809933e-10
6.218765389930695e-10
1.1415668554594704e-10
1.1057129350804162e-08
1.8948818034376325e-10
4.50162339844715e-09
1.2893225285385623e-10
2.438721963791688e-10
1.0383045200687527e-09
1.362301090148713e-09
4.1545380310831755e-10
1.2045933408783369e-08
8.420763913750048e-10
1.796110494883373e-10
8.963613485228175e-11
9.904907186204115e-10
5.783969697916722e-10
1.7961297741089834e-10
6.738782854180692e-10
6.0246203394688004e-09
6.265437482694981e-10
8.963613485228075e-11
2.979995151028007e-11
1.9414115454820038e-10
1.1928623558270801e-09
1.0229495239657719e-09
8.963906122668575e-11
2.4386887804582704e-10
3.081009368643984e-10
4.89259648403654e-11
2.8290568368012485e-08
5.677594909889308e-11
2.592360017811546e-10
5.744534662525903e-10
9.355755692289728e-11
1.0229420843755232e-09
8.963906122668177e-11
1.4234246823825544e-10
1.2893294042061814e-10
1.2825055964187513e-09
5.453691009919182e-10
9.904926769833336e-10
1.163096964571877e-08
8.411843556324992e-09
1.4234123268836873e-10
2.771863443020832e-10
1.8234435297500108e-09
6.896970389145818e-10
8.485360587229181e-10
1.0779780102238284e-10
5.868435377062422e-10
6.202873691062467e-09
1.0023077858877162e-09
1.684203240034805e-09
1.0779873672166978e-10
1.5532079045072784e-10
4.1316025775167633e-10
3.3001942462500195e-10
4.054207203749991e-10
9.207885881791642e-10
9.50631208264036e-10
2.9808375840630405e-11
2.591610198286649e-10
1.37143896349168e-09
7.352227436909084e-11
1.3717129984911598e-09
2.688425320395849e-10
1.0779780103087453e-10
1.154928696098382e-10
4.154568246124981e-10
1.176843058821976e-10
1.5532079045895125e-10
4.925576781571139e-10
8.41001377479999e-09
1.3042448283562617e-09
1.1415715463175447e-10
9.355693845535269e-11
2.8287685537405864e-08
4.4970762452708984e-11
8.267930633845511e-10
2.743257300625002e-09
7.35222743166835e-11
4.311235707562502e-09
5.680015682237869e-10
2.9799951510280076e-11
5.96063525015527e-11
2.1600783284374865e-09
1.4133244185564392e-10
4.2241525279311985e-10
3.846092407277908e-10
6.509424629907876e-11
6.158811821887117e-10
1.4480701796457825e-10
1.5532192007290965e-10
2.592360017811545e-10
9.355935987996852e-11
1.6820106991691727e-08
9.848957678437496e-10
1.8639556855312526e-09
6.552495175028862e-10
1.1274745592917164e-10
6.218738868604189e-10
1.3585261206174062e-10
1.2893294042061933e-10
1.304353190584679e-10
2.8651570632293896e-10
9.870188734127978e-11
3.846120375394822e-10
1.025769110260924e-09
1.2045927564454424e-08
1.2410316644229163e-09
6.89697038914581e-10
1.7961297741089429e-10
1.1928623558270801e-09
1.232252138608334e-09
4.0541834407708373e-10
1.2368267676874996e-09
1.181727048316191e-09
2.033451102687567e-10
5.303985737433728e-11
1.2537997989687654e-09
2.2229961635210143e-10
1.3428046587770669e-09
1.4133236809646018e-10
1.3715993358833476e-09
1.2537997989687648e-09
4.23659184982283e-10
1.2550219149416693e-09
1.5532506774583357e-10
2.4990666273496224e-11
1.896317972391776e-09
1.2274881345145905e-09
4.775975822979155e-10
9.461346300312543e-10
4.6481680091458513e-10
3.0850747006803757e-09
9.296278550043061e-10
3.0110997624583797e-10
9.214794649958342e-10
2.707930498625003e-10
5.085670919387567e-10
1.205907559174996e-09
9.904896342536108e-10
8.95682603818749e-10
2.8813973052340514e-10
1.323387109870823e-09
4.4837904214583407e-10
5.128930772166669e-10
6.682711461020811e-10
1.2825055964187513e-09
1.2921091982519427e-09
9.207885881791642e-10
5.107191212158801e-10
6.20285444693751e-09
1.104994427693572e-08
5.724933018749981e-10
5.783942895729236e-10
5.878388962296275e-10
1.3613055440429601e-09
5.774252934928041e-10
1.4066302960645712e-09
1.3714389634916585e-09
1.406620066026054e-09
2.1891607363976727e-08
1.0476619335685684e-10
6.509424629907852e-11
3.809974121249934e-10
6.376665827583267e-10
1.0945723479432368e-08
1.2322583692138724e-09
1.232249407400002e-09
1.1449993025625022e-09
1.2407970758723443e-08
1.1489192822262448e-09
6.552512828830579e-10
6.557287301054437e-10
1.7748589152708495e-10
5.813757294125037e-10
5.270791957695441e-09
4.603953218333331e-10
5.0181944675716756e-08
5.944430792971984e-10
6.89702054893044e-10
1.3715933963187428e-09
9.207863026083317e-10
1.2196822163140952e-09
4.303790204541681e-10
3.5842551043750356e-10
5.415821609170031e-10
5.107195721880008e-10
7.989675623303938e-10
1.4066302960645727e-09
2.7079108045850255e-10
1.3233871098708207e-09
7.528732771285855e-10
2.753070209782285e-10
7.01456030568723e-10
1.800959278276071e-08
6.376665827583267e-10
9.904979222416655e-10
8.411735540773663e-09
3.0614134544583715e-10
1.7440583919250804e-10
9.904983529833323e-10
1.4066302960645729e-09
1.3714389634916564e-09
5.0213667164072926e-11
4.4837904214583464e-10
9.904983529833319e-10
1.5807504988595842e-08
2.1733302058956318e-10
7.963334988456936e-10
9.546523714845814e-10
1.2059079272624829e-09
2.592579967430482e-10
1.5900628304982574e-09
1.682184082511973e-08
6.016823047812476e-10
5.881881071273345e-10
7.871214039606298e-10
7.745199119799918e-10
1.025778856002082e-09
1.16275690965656e-09
1.292094148491654e-09
6.780349951604126e-10
1.3042448283562617e-09
1.8278678005747517e-10
2.963982555187515e-10
7.989675623303938e-10
6.161292902645841e-10
5.107195721880077e-10
1.3428125608840125e-09
5.878346210687542e-10
8.410011676618747e-09
1.2356948965166618e-09
7.963330911611526e-10
2.0255852640486049e-10
1.610786386916659e-10
4.4482221668785843e-10
4.154568246124981e-10
4.154568246124939e-10
3.4344687043333263e-10
4.0120714402083126e-10
3.300225723437504e-10
3.3607540261133896e-10
5.960687073654627e-11
5.085761273541691e-10
4.236567884884523e-10
6.818125090087098e-11
3.536834706012848e-10
3.027117926597578e-10
2.1903729401422997e-08
1.3428078109874895e-09
1.2059023388958494e-09
7.9003650411035e-11
1.2199179355299028e-10
1.4968524323803847e-10
2.2198055425988041e-10
4.348841441114507e-10
1.94343517223505e-10
1.3062302353833354e-09
1.9435064901079407e-10
1.2199048838440506e-10
1.164854862481405e-08
1.104292006599378e-08
1.9410148332119187e-10
3.0072908433333664e-10
6.896984798916685e-10
1.2892030877276984e-10
1.25502522603562e-09
1.1930075483791512e-09
2.1903739539660882e-08
1.2407632743000021e-08
7.023251427729182e-10
8.603232261387647e-11
2.007490498462851e-10
9.169127484886557e-11
5.0787323542579784e-11
1.4774999014954527e-10
4.866088950611875e-10
1.721491906469755e-10
1.1630969645718774e-08
1.037920633204431e-10
4.448242856371847e-10
1.2256319130229058e-09
2.8029874066985456e-10
2.0334292430882155e-10
1.4633453724999888e-10
5.692894461813907e-10
1.2410267326875095e-09
7.963388827166642e-10
2.2389914918773455e-08
9.552004751437488e-10
2.8030114992729037e-10
5.528524911941135e-09
2.350535659928029e-08
6.202860290781261e-09
2.2977642835321632e-10
6.208736490000081e-10
3.779407291019537e-10
5.10719572188006e-10
1.0024077681585308e-09
1.1359750812437453e-09
1.3042448283562404e-09
1.2538070707249911e-09
5.878269119937434e-10
4.0216964327318317e-10
2.8290571516281213e-08
2.897556467030621e-10
5.774200404270821e-10
1.1342449193340351e-10
1.5807390024923193e-08
1.2196644756108814e-09
1.1049904184662558e-08
7.02321091152087e-10
7.168487467166689e-10
4.866651353124989e-10
9.506350992645835e-10
2.213770992749998e-09
2.6986025986333315e-08
2.2508268055833575e-09
2.753079423161148e-10
1.1050008255621021e-08
1.3365304903500077e-09
3.9663852247668604e-10
1.496821621944402e-10
1.4830415755485134e-10
2.785475354291685e-10
6.049012685589604e-10
2.3357270448364237e-08
5.521419313024977e-09
2.2543563944754685e-08
2.350707173105481e-10
1.3428135975833372e-09
6.541755573905903e-11
1.439244512982212e-10
6.598658080825001e-09
2.273055055145078e-10
6.818125102704036e-11
3.285540172422555e-11
8.244806774143388e-11
2.4970630603750094e-09
3.58425510437501e-10
8.604837767156231e-09
9.931210379093104e-10
2.0649078614225832e-10
9.848911238750057e-10
1.1854184651093989e-09
5.128930772166688e-10
6.078075364427662e-10
5.27082709370163e-09
3.2855401724225614e-11
8.683788556202835e-11
1.6186550723818366e-09
1.2892030877276674e-10
4.012071440208339e-10
1.1042920065993777e-08
8.604816083277888e-09
2.481862853193606e-08
1.4924192793125071e-10
4.132269949062461e-10
1.1549348540604441e-10
2.286963827677609e-11
9.161048466250092e-10
4.2316006248897563e-10
2.897523676213188e-10
5.881722758083392e-10
1.2251689465786756e-10
2.963969779604139e-10
3.8725995598999594e-10
2.6898308093067647e-10
2.9411290113334004e-10
5.244267688030585e-09
1.5663722997019467e-10
1.0912958013501771e-08
5.88170134750007e-10
2.286823829337489e-11
3.4028314436875034e-10
4.833250165232003e-08
2.947613195999934e-10
4.5521314447030366e-11
2.5113726507070382e-08
4.993236559561033e-08
3.8180930803154095e-10
2.2909893432534235e-08
1.21423782731164e-09
3.4129325305227823e-10
6.987371284298746e-10
2.5925661419462165e-10
2.7432655780699584e-09
6.724406915858138e-10
4.131602577900265e-10
1.0576868387071598e-10
6.563747953679033e-10
8.369933204051373e-10
4.691071351677935e-10
2.2174427117933582e-10
2.6911063598718438e-08
1.1990657131593672e-08
2.350404832093869e-08
1.4689352145416748e-10
7.930332963920901e-10
2.592348503474039e-10
8.456018932050747e-11
4.714377316687514e-10
1.6193306448898002e-09
4.615131827377359e-10
1.752383546812499e-09
1.2198806482845442e-10
1.4586684266875018e-09
6.541704001919039e-11
1.9230073250041445e-10
2.34124596933895e-10
4.701930444982937e-10
1.0779780103196768e-10
3.9190509334546854e-10
7.543819194818845e-10
4.855110335395779e-10
3.853092377520835e-10
3.113497721125034e-10
2.2951496475762833e-08
1.706487638441369e-10
8.627636978644643e-09
5.854455008827721e-11
4.621111581128544e-10
1.149097217930862e-08
4.5522751498030325e-11
1.6170905102916476e-10
1.6925744839539108e-10
9.623883849643353e-11
6.563782006848244e-10
3.913901560325232e-10
6.329105995526416e-11
1.1630969645718774e-08
2.648007295859274e-10
3.779407295090978e-10
9.624059953837691e-11
2.6511145536229073e-10
2.41015716057892e-10
1.8585890302688072e-10
6.837099719009679e-11
1.7014273072500063e-10
4.2023875515416633e-10
3.0243694053187963e-09
2.5915991837795736e-10
2.743244867906246e-09
3.75958903662711e-10
8.64805916541877e-09
1.1549237846128962e-10
2.508998418986622e-10
8.585518526198584e-09
9.161048466249956e-10
4.1508281920416103e-10
2.2152789063094815e-08
1.5390949152795455e-09
2.213775969187499e-09
1.8586320467691867e-08
2.232809717416676e-10
3.0243861669999874e-09
1.1768430588219763e-10
2.676893281187721e-08
2.5535590891035303e-10
3.234210024145831e-10
3.77162982647917e-10
4.6426843407083386e-10
2.233630633899269e-11
7.930301273655691e-10
4.007173557750007e-10
2.1600852845625006e-09
3.434468704333265e-10
8.627636830826994e-09
8.48536058722915e-10
1.0000630383022004e-10
8.627605529569232e-09
3.4028314436875085e-10
1.3714467946666598e-09
3.4028314436875096e-10
9.351618061667684e-11
3.434475203108528e-10
4.855145645289121e-10
2.985322524854849e-11
3.0243815118750114e-09
8.622496359000016e-09
8.36986125959034e-10
2.2527582251568564e-08
4.303703010406261e-09
8.067076487937397e-10
6.731896590145792e-10
2.7718319662916854e-10
2.5918641194996326e-10
6.7244069158582e-10
9.848911238750055e-10
2.8813050947657605e-10
6.721407527461832e-10
3.3714784278671376e-08
2.4102378910909354e-10
4.101184491249891e-10
1.4142708456341691e-08
1.1550357185236046e-10
1.2893225285385623e-10
5.961930837639405e-11
1.468935214541675e-10
1.077978010319672e-10
2.592348503474029e-10
4.6426843352083444e-10
4.2023560745833193e-10
4.504198329002683e-10
9.617399521664589e-11
2.591599183779574e-10
1.7961104948833736e-10
2.1018795508333254e-10
9.351712969833982e-11
1.4142708456341691e-08
8.268022244166659e-10
4.96873360656247e-10
6.724370999885204e-10
2.6090438038814604e-10
1.9409946514093772e-10
1.1550418767419596e-10
9.617242776292106e-11
1.9414115457749423e-10
9.355755692289688e-11
3.8059918036249983e-10
1.9414115457749423e-10
2.5918502970197835e-10
1.3273040491860467e-08
1.5036254144999695e-10
7.828980554039488e-10
2.980642874678023e-11
2.1600887994375083e-09
9.916843750000031e-11
4.6114615518125175e-10
1.9413946698286058e-10
4.435380589110022e-10
3.101442690593596e-09
8.683972708732052e-11
2.0256112990103918e-10
2.0255684076864185e-10
6.329041846377471e-11
4.132269949062492e-10
1.2893225285385504e-10
2.357173183750015e-10
3.162030707499587e-08
1.1550418767419784e-10
3.43444372637903e-10
1.9413946698285944e-10
2.591621715897903e-10
5.85445500843557e-11
6.724191616087785e-10
1.414528573833828e-08
3.43450018129167e-10
2.592566141946201e-10
5.118277625732067e-10
1.6170905102916476e-10
6.329061124942418e-11
4.0071735577499864e-10
3.8059918036249973e-10
8.420725711410814e-10
3.4117854026426416e-10
3.921252558772025e-11
1.4737939415833662e-10
6.724191616087783e-10
9.623966237275002e-11
3.8461203790625095e-10
2.65460758752177e-08
3.759616379291654e-10
2.2635381151396194e-11
1.7014273072500063e-10
5.303760394418086e-11
7.903947655469275e-11
3.799191252312473e-10
3.4132572011579754e-10
3.4132572011580157e-10
4.968707106649915e-10
9.999328146537525e-11
1.2198580431854065e-10
1.458664948624994e-09
3.75963998872916e-10
2.4970312391790007e-09
3.799191252312511e-10
2.985322524854842e-11
8.896832663770049e-11
3.4128761454424286e-10
2.2175159817745714e-10
2.985322524854852e-11
2.4970709904999703e-09
2.5923710370134123e-10
1.1426006775324666e-11
2.025611298673689e-10
3.4133331438830085e-10
1.1549237855730155e-10
9.117217648749995e-10
3.77162982647917e-10
2.591872831321341e-10
3.434443726379135e-10
7.014505145625039e-10
1.1990732932187405e-08
2.6510780628729416e-10
2.60580915252286e-10
1.0576988942398384e-10
2.2137792418018927e-09
1.5390949152795482e-09
2.6057966251729013e-10
8.245135160108684e-11
3.412882062457891e-10
2.101911030083556e-10
7.014609487500028e-10
1.941411545481992e-10
9.689685101249994e-10