# vtk DataFile Version 3.0
Inflated mesh
ASCII

DATASET UNSTRUCTURED_GRID
POINTS 189 double
 -0.16900000   0.04799998   0.03903846
 -0.16900003   0.04799999   0.38899994
 -0.18900000   0.04799998   0.03900003
 -0.18900000   0.02800003   0.03899999
 -0.18900000   0.04799999   0.01900001
 -0.16899998  -0.04000001   0.03900001
 -0.16900000   0.02800003   0.03900001
 -0.16900001  -0.13599998   0.40899992
 -0.16900001  -0.13599998   0.38899994
 -0.18900001   0.02799999   0.38899988
 -0.18900001  -0.13599998   0.38899994
 -0.16900003   0.04799999   0.40899992
  0.00000001   0.04799998   0.38899994
 -0.18900003   0.04799999   0.38899994
 -0.18900003   0.04799999   0.40899992
 -0.16900003   0.02934410   0.40899992
  0.00000000   0.02934409   0.40899992
  0.00000001   0.04799998   0.40899992
 -0.16900003   0.02800001   0.38899994
  0.00000000  -0.13599995   0.38899994
  0.00000000  -0.13599995   0.40899992
 -0.28350000   0.13599998   0.01900001
 -0.14175001   0.13599998   0.00000002
 -0.28350000   0.13599998   0.00000001
 -0.14175001   0.02013977   0.00000002
 -0.28350000   0.03013976   0.00000001
 -0.16900001   0.06799998   0.03900005
  0.00000000   0.06799998   0.03900006
  0.00000000   0.04799998   0.03900006
 -0.18900000   0.06799998   0.01900004
 -0.18900000   0.06799998   0.03900005
  0.00000000   0.04799998   0.01900005
 -0.16900000   0.06799998   0.01900004
 -0.14175001  -0.12799999   0.00000002
 -0.28349996  -0.12799999   0.01900001
 -0.28349996  -0.12799999   0.00000001
 -0.00000001   0.02013978   0.00000004
 -0.00000001   0.13599998   0.00000002
 -0.14175001   0.13599998   0.01900001
  0.00000000   0.06799998   0.01900005
 -0.28350000   0.03013976   0.01900001
  0.00000000  -0.12799999   0.01900002
 -0.16900000   0.04799998   0.01900004
 -0.14175000  -0.12799999   0.01900001
 -0.18899998  -0.04000001   0.01900001
 -0.16899998  -0.04000001   0.01900001
  0.18899998   0.02799999   0.38899988
  0.18899998   0.04799998   0.03900005
  0.18900001   0.04799999   0.38899988
  0.18899995  -0.04000000   0.03900003
  0.18899995  -0.04000000   0.01900003
  0.16899997  -0.04000000   0.03900003
  0.16899997   0.02800002   0.03900003
  0.18899998  -0.13599995   0.40899992
  0.18899998  -0.13599995   0.38899994
  0.16899997  -0.13599995   0.40899992
  0.16899997  -0.13599995   0.38899994
  0.16900000   0.02800001   0.38899988
  0.16900000   0.04799999   0.40899992
  0.16900000   0.04799999   0.38899988
  0.18900001   0.02934410   0.40899992
  0.16900000   0.02934409   0.40899992
  0.00000000   0.02800000   0.38899994
  0.14175001   0.13599995   0.00000003
  0.28350000   0.13599995   0.00000003
  0.14174998   0.02013977   0.00000003
  0.16900000   0.06799997   0.03900006
  0.18899998   0.06799997   0.03900006
  0.16899997   0.04799998   0.03903847
  0.18899998   0.06799997   0.01900005
  0.16899997   0.06799997   0.01900005
  0.28350000   0.03013976   0.01900003
  0.28350000   0.03013976   0.00000003
  0.00000000  -0.12799999   0.00000002
  0.18899998   0.04799999   0.01900003
  0.18899998   0.02800002   0.03900000
  0.14174998   0.13599995   0.01900003
  0.16899997   0.04799998   0.01900005
  0.28350000   0.13599995   0.01900003
  0.28349993  -0.12799999   0.00000003
  0.14174995  -0.12799999   0.01900003
  0.28349993  -0.12799999   0.01900003
  0.16899997  -0.04000000   0.01900003
 -0.18899998  -0.04000001   0.03900001
 -0.18900001  -0.13599998   0.40899992
 -0.18900003   0.02934410   0.40899992
 -0.00000001   0.13599998   0.01900002
  0.18900001   0.04799999   0.40899992
  0.14174998  -0.12799999   0.00000003
 -0.06324851   0.01829625   0.00767055
 -0.17900001   0.03799999   0.21401917
 -0.16900003   0.03867204   0.39899993
 -0.08450001   0.03867204   0.39899993
 -0.17900000   0.03800000   0.03900002
 -0.17900000   0.05799998   0.02900004
 -0.17900000   0.04799998   0.02900004
 -0.17900000   0.03800000   0.02900001
 -0.16537501   0.03406988   0.00950002
 -0.23625000   0.03906987   0.00950001
 -0.17900000   0.04799998   0.01900003
 -0.17899999  -0.00599999   0.02900001
 -0.17900001  -0.05399999   0.39899990
 -0.16900002  -0.05399999   0.39899993
 -0.17900002   0.02867204   0.39899990
  0.00000001   0.03867204   0.39899993
  0.08450001   0.03867204   0.39899993
 -0.17900003   0.03867204   0.39899993
 -0.17900003   0.03800000   0.38899994
 -0.16900003   0.02867205   0.39899993
 -0.08450001   0.02867205   0.39899993
  0.00000000   0.02867205   0.39899993
 -0.08450001  -0.05399997   0.39899993
  0.00000000  -0.05399998   0.39899993
 -0.16537501   0.10199998   0.00950003
 -0.15537501   0.10199998   0.00950003
 -0.07087501   0.10199998   0.00950003
 -0.23625000   0.10199998   0.00950003
 -0.16537501   0.04406988   0.00950003
 -0.07087501   0.03406988   0.00950003
 -0.15537501   0.04406988   0.00950003
 -0.14175001   0.07806988   0.00950001
 -0.07087501   0.04406988   0.00950003
 -0.15537501   0.03406988   0.00950003
 -0.14175001  -0.05393011   0.00950001
 -0.16537500  -0.00993012   0.00950002
 -0.15537500  -0.00993012   0.00950002
 -0.23625000   0.04906987   0.00950003
 -0.23624999  -0.00493012   0.00950001
 -0.16900001   0.05799998   0.02900005
  0.00000000   0.05799998   0.02900005
 -0.08450000   0.05799998   0.02900005
  0.08449998   0.05799998   0.02900006
 -0.17900000   0.05799998   0.01900004
 -0.08450000   0.05799998   0.01900004
 -0.00000001   0.03406988   0.00950004
  0.00000000   0.05799998   0.01900005
  0.07087499   0.03406987   0.00950004
  0.08449998   0.05799998   0.01900005
 -0.16900000   0.05799998   0.01900004
 -0.16537500  -0.08400000   0.00950002
 -0.15537500  -0.08400000   0.00950002
 -0.23624997  -0.08400000   0.00950001
 -0.00000001   0.04406988   0.00950004
 -0.00000001  -0.05393011   0.00950003
 -0.07087501  -0.05393011   0.00950003
 -0.00000001   0.10199998   0.00950004
  0.07087501   0.10199996   0.00950004
  0.07087499   0.04406987   0.00950004
  0.07087499  -0.05393011   0.00950003
 -0.17899999   0.00399999   0.01900003
  0.17899998  -0.05399998   0.39899990
  0.17899999   0.03799999   0.38899988
  0.17899999   0.02867204   0.39899990
  0.17899998   0.03799999   0.21401918
  0.17899998   0.03800000   0.03900004
  0.17899998   0.04799998   0.02900005
  0.17899996  -0.00599999   0.02900003
  0.16537496  -0.00993012   0.00950003
  0.23624998  -0.00493012   0.00950003
  0.17899996   0.00399999   0.01900004
  0.23624994  -0.08400000   0.00950003
  0.16537496  -0.08400000   0.00950003
  0.16899999  -0.05399997   0.39899990
  0.08449998  -0.05399998   0.39899993
  0.16900000   0.02867205   0.39899990
  0.17900001   0.03867204   0.39899990
  0.16900000   0.03867204   0.39899990
  0.08450000   0.02867205   0.39899993
  0.16537500   0.10199996   0.00950004
  0.15537499   0.10199996   0.00950004
  0.23624999   0.10199996   0.00950004
  0.16537498   0.04406987   0.00950004
  0.15537497   0.04406987   0.00950004
  0.16537498   0.03406988   0.00950003
  0.14174998   0.07806986   0.00950003
  0.15537497   0.03406987   0.00950004
  0.14174997  -0.05393011   0.00950003
  0.15537497  -0.00993012   0.00950003
  0.16899999   0.05799998   0.02900006
  0.23624999   0.04906987   0.00950004
  0.17899998   0.05799998   0.01900005
  0.16899997   0.05799998   0.01900005
  0.23624999   0.03906987   0.00950003
  0.17899998   0.04799998   0.01900004
  0.17899998   0.03800000   0.02900003
  0.15537497  -0.08400000   0.00950003
 -0.18233334   0.06133331   0.03233337
  0.18233332   0.06133331   0.03233339
  0.18233334   0.04178136   0.40233324

CELLS 711 3555
4     74    171    179    182
4    133     32     39    118
4     90      2      9     13
4     20      8    102    111
4    145     38    115     39
4     96     93      6     42
4    131     68     77    178
4    184     77     52    154
4    145     86     38     39
4    169     76    172     70
4    111    108    102     20
4     78     76    168     69
4     57     54    150    162
4    101      9      8     10
4     56    112    163     62
4    178     77    131    181
4    142    115     39    145
4     68    131     77     28
4     45    149    122     44
4    178     77    155     68
4    142     63    146     65
4     56    112     62     19
4    141     34     44    127
4     76    145     63    146
4     57     54    162     56
4     90      6     18      9
4    106     11     15     91
4      6     93      9     90
4     74    179     71    182
4     34     44    127     40
4     77    157    173    183
4    180     77    171    183
4    136    172    181     77
4     94     26     32     29
4    145     76     86     39
4    103     15    106     85
4     65    142    134    147
4     34    139    141     44
4     45    139     43     44
4    139     34     43     44
4    100     44     83      3
4     15    103    101     84
4    109    112     62    110
4     65     79     72    157
4      9    101     84     10
4     42     95    132     99
4    132     42    117    138
4     42      0     93      6
4     40    126     29     98
4     96     95     42     99
4     42     94    128    138
4    133    138    118     42
4     15     85    103     84
4    186     30     26     29
4     42     94    138    132
4     98     44     40    127
4    133     32    129     39
4     42     41     43     89
4    139    141     44    124
4     44    141    127    124
4     45    139     44    124
4     44    127     97    124
4     77     52    154     68
4     42    132    117     97
4    119     32     39     38
4    113     21    116     29
4    126     29     97    117
4     38    120    115     39
4     88     79     65    157
4     44    100     83      5
4     55     54    150     53
4    157     77    175     82
4     44    149     99     96
4     45    140    123     43
4     44    149    122     97
4     44    100    149     96
4    148    176     80     73
4    116     40    126     29
4    138    130    128     42
4    126    116     29    113
4    126     29    117    113
4     32     29     38    113
4     29     32    117    113
4    119     32     38    114
[...]
CELL_DATA 711
SCALARS cell_volume double 1
LOOKUP_TABLE default
1.1221862097126765e-06
2.6758330069274163e-06
1.1666657835261178e-05
2.3096644894998877e-05
7.630874999999434e-06
3.333328333324995e-07
2.822077817307e-06
3.333333333323334e-07
1.5261741967499435e-05
2.499443244234171e-06
1.1642968701554004e-05
1.52617476645827e-05
2.733326866670408e-06
5.466660200002005e-06
2.309663106168087e-05
1.4083349083335003e-06
6.5008502523671e-06
5.644153964745668e-06
1.3933353379926682e-06
3.339740006403334e-07
1.3001699177586624e-05
4.619326485669152e-05
1.18308310777865e-05
7.630879397706752e-06
5.4666625999979455e-06
1.1666629334654161e-05
3.1093118906850063e-07
5.83395708302758e-06
1.496250316665879e-06
2.3661660659323322e-05
6.966690958336028e-07
1.5833365324810128e-07
1.3379177583330014e-06
6.666669999999999e-07
1.5261740890832854e-05
3.3333393279400017e-07
1.1221886812499998e-06
9.875243575625953e-06
2.78666310000067e-06
1.9750469147928533e-05
2.2666680000000023e-06
2.7557398448023387e-06
1.1642967293221581e-05
3.5492494040051516e-05
5.466660200001012e-06
1.6666683333333306e-07
1.5833349999999972e-07
6.679456634649987e-07
1.4962492124999997e-06
1.6666649999966633e-07
1.6666666666666644e-07
1.3379180750000002e-06
5.511480356272004e-06
4.4444466666655544e-07
1.666666666666664e-07
6.583498786536658e-06
2.816668075000001e-06
4.710802000909269e-05
8.312019994928887e-06
8.873115459223704e-06
2.345543731004003e-06
4.937620759166518e-06
6.679466653846641e-07
1.5833349491483308e-07
1.8195708671925004e-05
7.630869907083899e-06
1.1221858930483594e-06
1.3001687197641322e-05
3.3248105657269e-05
2.2666680000000023e-06
5.466661933331611e-06
1.3933326256619793e-06
7.333317000008338e-07
3.1958009879506867e-06
6.966689003305332e-07
7.333317000008339e-07
1.6624062750909712e-05
7.919663540503836e-06
1.4083349083335003e-06
5.939756195870788e-06
6.500849335140514e-06
2.153332199999999e-06
1.834455097669999e-06
2.499440206862661e-06
1.1666628000013996e-05
1.6666629973166713e-07
6.218623781370014e-07
1.6666666666616634e-07
1.3778683778644125e-06
1.6666633333350033e-07
1.377864410933848e-06
6.218623781370014e-07
2.8220778173070003e-06
2.3096639261670177e-05
5.832686500647833e-06
1.1665371001284011e-05
6.504445590280695e-06
3.7968419850983494e-06
5.466655400006807e-06
5.616405477402756e-05
2.0728819235338932e-07
2.6273775271462114e-06
3.333338333326668e-07
5.511482112009173e-06
1.4083331666666666e-06
4.1457636977208314e-07
3.333339999994996e-07
6.21864887992288e-07
5.511481778675513e-06
1.4083308500007433e-06
1.1642999435952265e-05
2.627370577823465e-06
2.4376596978239786e-05
1.4083305166680768e-06
1.3001680207693305e-05
7.919666392369514e-06
1.4083306833344098e-06
6.58350017986999e-06
6.500849889073271e-06
1.1642963159624215e-05
5.93975395149374e-06
4.6193275873352364e-05
1.164296447655723e-05
5.254737095257657e-06
2.266668466667001e-06
2.8166615333351525e-06
5.254739600990152e-06
1.1642965915355793e-05
5.254738028051224e-06
4.93762553833365e-06
1.4083347416638158e-06
1.4083345749970162e-06
5.6333361500000025e-06
1.4666663333325335e-06
1.393331623333648e-06
1.1221886812498338e-06
6.500850252367098e-06
7.630871678958652e-06
3.3248117385e-05
1.8344556982303923e-06
1.583336583335001e-07
2.153333776666352e-06
5.254738338982579e-06
3.32481126939113e-05
1.583933428098935e-05
1.6624049942992957e-05
1.6666700000016675e-07
9.097844821138789e-06
1.4690571997010706e-06
1.3379164204152429e-06
1.666666666661667e-07
8.812621595142906e-06
6.500852086823161e-06
1.6666700000016675e-07
3.3333350000016694e-07
4.4444377777777823e-07
1.1666661001918258e-05
1.1665386166023494e-05
1.1665357002584319e-05
1.1666632500664326e-05
1.3008885691061719e-05
1.1666645166663506e-05
5.833965499991001e-06
2.933327466668937e-06
1.1727719272268985e-06
2.3661662335444092e-05
1.9750505988168816e-05
2.266665066666003e-06
2.2666650666659995e-06
7.333331666662669e-07
1.5261740890833894e-05
9.875257627317074e-06
3.324810223153582e-05
1.1773671635671526e-05
3.7968354222224658e-06
3.50294436468608e-06
1.4083347416666669e-06
2.36616623354441e-05
3.195807173606591e-06
1.975049272458397e-05
1.975048854458492e-05
1.4666643999986682e-06
2.2666680000000023e-06
5.633335149999502e-06
1.5839327081007673e-05
1.6624067442004576e-05
3.3397366666666605e-07
5.644154966666668e-06
2.816666166666667e-06
4.619328705666715e-05
1.1666657835255329e-05
1.1666629334639563e-05
5.833957083018821e-06
5.832686500644906e-06
6.218627114700015e-07
3.3333266666700077e-07
1.4083308500007433e-06
5.633323066670308e-06
2.627370577823465e-06
5.633323400003139e-06
5.254738338982413e-06
2.8166631083337455e-06
2.6273705778234654e-06
1.6666649999966635e-07
5.833960000010505e-06
3.339729987193326e-07
1.1666633833345508e-05
5.833960000004661e-06
2.222222222225005e-07
1.666666666666664e-07
1.666666666666664e-07
6.666670000001673e-07
6.666656666656671e-07
6.679469999999995e-07
3.333325000003337e-07
3.3397283205299967e-07
3.333331666668333e-07
3.3333316666666695e-07
3.3333266666566664e-07
3.3333333333200023e-07
2.933330400000002e-06
1.4666648666673348e-06
1.6666649999966683e-07
4.937619636980123e-06
1.5833349491483308e-07
1.1221824756802188e-06
6.966692399976071e-07
2.9924985037476373e-06
1.3167000565573946e-05
9.875241518333352e-06
2.2443676402883143e-06
3.3333349999983364e-07
1.6666649999966678e-07
1.4666637333336678e-06
3.166670534943941e-07
1.3933387966624892e-06
2.2666679999999994e-06
2.2666680000000028e-06
1.4666641333344976e-06
2.933329599997999e-06
2.2666679999999994e-06
1.4666648666673325e-06
5.466660533334005e-06
5.511480356271996e-06
5.466660533334004e-06
1.377864577600011e-06
2.7333277000030665e-06
4.6193284240003635e-05
4.657187205048378e-05
2.7557291552000215e-06
2.733327533336733e-06
6.666678655886664e-07
2.755739844802169e-06
5.511480356271664e-06
3.3333259946333384e-07
2.7557288218676916e-06
2.8166617000014866e-06
2.6273691694912074e-06
1.4083305166680766e-06
2.6273685476288288e-06
5.254735522317897e-06
5.254752548552744e-06
5.254736784326636e-06
5.633338966656165e-06
5.633338633322733e-06
2.8166610333361536e-06
2.6273671392969036e-06
3.109313557350007e-07
3.3333393279433363e-07
1.6666629973166713e-07
6.218623781370014e-07
1.6666633333350036e-07
6.218627114700015e-07
5.832686500647833e-06
1.1665371001284011e-05
5.832686500644906e-06
3.3333266666700077e-07
3.3333259946333384e-07
1.6666629973166713e-07
1.6666633333350039e-07
2.328593602524189e-05
1.6666629973116714e-07
1.6666633333350033e-07
1.3778644109338481e-06
1.164296867108737e-05
1.4083308500007424e-06
1.377864577600011e-06
4.657186629528921e-05
2.8166601250028945e-06
2.3285935933842477e-05
1.408330850000743e-06
2.3285931769778977e-05
1.4083308500007433e-06
2.8166610333361536e-06
1.4083306833344098e-06
4.657184976090173e-05
4.6571858028095465e-05
1.408330850000743e-06
2.3096644894999205e-05
1.1642968701554004e-05
4.619328125667012e-05
2.328593173931234e-05
4.6193287056667644e-05
4.619326204002817e-05
4.619326204002817e-05
1.1642967293221581e-05
2.3096637853338084e-05
2.3285927697114218e-05
1.164296447655723e-05
1.164296867108737e-05
1.5261748923333324e-05
2.3759030627851218e-05
2.600340598139012e-05
1.0766660999999977e-06
9.172275488349985e-07
1.526174089083389e-05
2.499441124087312e-06
1.0766660999999977e-06
1.8344552560034962e-06
1.5261741967499998e-05
2.6003384944472252e-05
1.300167997575694e-05
2.6003375881875e-05
7.630873923333332e-06
1.5839335417499994e-05
1.1879524896478297e-05
1.5839335417499994e-05
1.5833349999999972e-07
1.5833349491483308e-07
2.2443723381780174e-06
1.3001701868506261e-05
9.172275488349983e-07
2.6758330069274163e-06
1.337918075e-06
1.1221886812498338e-06
2.938114304047606e-06
1.7514709810518913e-06
9.097866505624932e-06
1.249721219791667e-06
9.172275488349985e-07
1.5833349999999972e-07
9.172275488349983e-07
1.337919483333334e-06
1.3379180750000002e-06
6.500843409373071e-06
2.4994400243202306e-06
1.3001674254950193e-05
4.548932983644833e-06
1.2497199042956457e-06
1.3001686818750003e-05
2.2443750000000013e-06
1.3379180750000002e-06
6.5008365663819385e-06
4.548928195314317e-06
1.3933328689963347e-06
6.966676658323666e-07
1.2188311502570399e-05
1.8984206080065466e-06
1.5833349491483305e-07
1.7514707234001249e-06
1.5833349999999972e-07
1.3379180750000002e-06
1.5978988119735545e-06
1.3008892256138496e-05
3.32480823869817e-05
1.2188298080554933e-05
9.49206623670815e-07
3.324811149026958e-05
3.549249323016495e-05
1.172771865501998e-06
9.875250877499924e-06
6.966664344981654e-07
6.96668399166433e-07
3.1958009879492197e-06
9.492076228360149e-07
2.345546199999996e-06
6.966671678314987e-07
1.4962499999999997e-06
1.1221870742981922e-06
7.919667708749998e-06
5.939762448239147e-06
6.5008561781326114e-06
1.122183656930052e-06
2.3661660659323946e-05
2.3661660659323946e-05
6.583498786536817e-06
1.774622979626085e-05
4.937620759166517e-06
4.937619636980122e-06
3.333331666666663e-07
5.633336483333668e-06
5.6441524839733355e-06
3.339733326929995e-07
1.6666649999999987e-07
5.6333361500000025e-06
1.408335816666167e-06
2.816669483333335e-06
1.4083347416666669e-06
2.816670224999168e-06
5.633335149999502e-06
2.8166698166670006e-06
2.8220778173070007e-06
5.644154966666669e-06
2.8166694833333354e-06
2.816669483333335e-06
5.64414932792443e-06
5.633333333332096e-06
5.644151147439334e-06
2.81666881666476e-06
2.8166688166660017e-06
1.666668333333335e-07
3.1666699999999985e-07
3.333333333333333e-07
1.583334949148335e-07
1.6666666666666691e-07
1.5833349491483353e-07
1.337918302083167e-06
2.6758397472389177e-06
1.4083333333333333e-06
2.8166680750000004e-06
1.1221875590613194e-06
1.122188681249834e-06
1.4690590629608515e-06
1.762525927331392e-05
9.875256505130756e-06
1.3379192545842557e-06
1.4083315916670008e-06
1.337918302083167e-06
1.4083333333333333e-06
1.122189803438682e-06
1.1221886812498342e-06
1.3379179166665003e-06
4.7094688081543335e-05
1.9750512486954772e-05
1.3379164204152443e-06
1.1221886812500009e-06
2.816666166666667e-06
1.408333e-06
2.6758356749995013e-06
1.3379177583330012e-06
1.5833349999999974e-07
1.6666666666666644e-07
1.3379180750000002e-06
1.666666666666664e-07
1.4083349083335003e-06
1.4083347416666669e-06
1.5833349999999977e-07
1.337918075e-06
1.4083347416666669e-06
1.9750488544584916e-05
1.3933315500003307e-06
1.9750479542923233e-05
1.662405574513479e-05
1.172771865501998e-06
3.1958031460588368e-06
1.5979004939746098e-06
1.1727730999999977e-06
1.3933322833334976e-06
1.1727730999999977e-06
1.1830831077786497e-05
9.87524357562595e-06
8.312019994928886e-06
8.8731154592237e-06
1.3001692472236126e-05
2.6003367314296426e-05
2.2443748416666655e-06
1.1221875000000006e-06
6.5008434093750026e-06
2.600338861338018e-05
1.1221875000000002e-06
1.6624049942995427e-05
8.812621863468866e-06
6.5044304097853525e-06
1.9750493071305928e-05
3.324811728382961e-05
6.504453905914296e-06
1.662405981468632e-05
3.3248121974923716e-05
1.6624059814688683e-05
6.504438725416802e-06
7.63087901625e-06
1.5261749999999997e-05
6.500857095361126e-06
1.5261752153333603e-05
1.5261748923333327e-05
1.300171602517928e-05
6.500849130179696e-06
7.630878275520434e-06
6.500840293292795e-06
6.500852086823163e-06
1.1221886812500002e-06
1.8195690287490503e-05
2.6758356749995005e-06
1.1221886812500007e-06
6.500849130179699e-06
1.3001680586585908e-05
3.3248105657269e-05
3.9500990177555764e-05
9.875247232318258e-06
2.354733027301847e-05
1.6624058692499996e-05
9.875246110133119e-06
1.3933329459960938e-06
7.333317000004985e-07
6.966682408319726e-07
7.333317000004985e-07
1.4666640666656658e-06
6.966682408319726e-07
5.466653733340808e-06
5.4666592000020125e-06
1.3778683778644087e-06
2.755739511467999e-06
1.6666666666616634e-07
6.666683333340004e-07
3.3333433333383297e-07
5.832692916339003e-06
5.8326783346227476e-06
5.511482112009182e-06
2.755736755728821e-06
2.7557395114680026e-06
3.3333333333233317e-07
3.333343333338334e-07
1.1666661001930262e-05
1.1666632500676662e-05
5.83396549999992e-06
5.832692916345004e-06
5.832678334625833e-06
1.666666666661667e-07
3.3397333269233205e-07
1.166663933334384e-05
5.833962583011169e-06
5.833962583017169e-06
6.67947332692834e-07
6.666659999995005e-07
6.666666666663341e-07
4.4444433333288784e-07
3.3333316666566697e-07
3.3397316538566687e-07
2.266668466666998e-06
7.33333166666267e-07
1.4666637333344685e-06
2.2666650666659995e-06
2.2666650666659995e-06
6.966689374997173e-07
1.7746249523904586e-05
1.6624052828634505e-05
1.3933326256619833e-06
4.93762519197885e-06
1.1727719272268985e-06
1.3167002138777272e-05
2.366166483932348e-05
1.1830833864452543e-05
8.873125283462869e-06
9.875251426978852e-06
2.9333300666652973e-06
1.4666654333337657e-06
1.4666637333344668e-06
1.3933373366659915e-06
1.393332625661981e-06
9.875244968958968e-06
8.312027000703803e-06
1.1830833864453173e-05
8.87312528346287e-06
2.786663563333651e-06
1.975049496895865e-05
2.3455438544538007e-06
9.875246091146153e-06
8.312027000703803e-06
2.733326866670575e-06
5.4666625999979455e-06
2.755736755728992e-06
1.1643002222153836e-05
2.30966420783252e-05
2.3096629653349287e-05
1.1642963159624215e-05
2.328592763618262e-05
2.328600162763937e-05
2.30966406700016e-05
3.3333333333233285e-07
1.3778683778644125e-06
2.3285998871904367e-05
2.8166708916636144e-06
2.8166691499940337e-06
1.377868377864409e-06
1.6666666666616642e-07
6.218648879922881e-07
3.3333416666699975e-07
1.6666716666699955e-07
3.109325994622877e-07
1.6666666666616632e-07
2.627377527146212e-06
1.4083345749970162e-06
1.666671666669996e-07
3.1093259946228776e-07
1.1642999435952265e-05
1.4083305166680768e-06
1.1642965915355793e-05
1.4083347416638155e-06
1.4083305166680768e-06
1.1643002222153834e-05
1.5261747664582703e-05
2.6003399714627057e-05
2.3759019726473443e-05
1.526174443458365e-05
9.172283077288911e-07
1.0766674266663509e-06
2.499442705900995e-06
1.834456615457782e-06
1.0766674266663509e-06
1.583933428098935e-05
1.1879509025176005e-05
7.630871678958652e-06
1.5839334280989342e-05
1.1221850875258055e-06
1.5833349491438256e-07
1.300169977814686e-05
9.172283077288911e-07
1.5833365833350008e-07
1.249721163504356e-06
1.3379177583329998e-06
4.548922410569396e-06
1.3379164204152414e-06
1.3379190962507581e-06
9.172283077288908e-07
9.17228307728891e-07
1.5833365833349998e-07
6.96669095833286e-07
9.87525107666698e-06
2.244370175052004e-06
1.583334949144429e-07
1.3001680207693305e-05
6.500840293292794e-06
2.499442705900995e-06
1.249721163504356e-06
4.548922410569395e-06
6.966663128309896e-07
1.8984221701517848e-06
9.875253718461076e-06
1.177367163567293e-05
1.3379177583329991e-06
1.5833365833349998e-07
6.966690958325527e-07
1.5833349491444288e-07
1.6624062750909705e-05
3.324811269391007e-05
1.5979033487499997e-06
9.492097996074647e-07
9.875253718461072e-06
2.345543854453797e-06
6.966663128311563e-07
3.1958066974999993e-06
9.492097996069581e-07
2.822074995230592e-06
2.816665591665094e-06
3.339734993598348e-07
6.666666666661676e-07
6.666658333341683e-07
2.244370175052399e-06
2.992497640834275e-06
7.919666392369514e-06
6.500849889073273e-06
5.939753951493741e-06
3.1666667316221294e-07
3.1666684166634215e-07
3.333334999996671e-07
3.3333333333333367e-07
3.333331666668338e-07
1.4083334999985926e-06
1.3379164204152435e-06
1.4083317583335007e-06
1.5833349999984185e-07
1.6666683333316685e-07
1.4083344083303513e-06
1.3379165787485844e-06
1.5833349999984182e-07
1.1221862097138574e-06
1.4962503166666665e-06
6.58350017986983e-06
4.93762553833365e-06
4.937625191978851e-06
1.1221850875269865e-06
6.966683991658861e-07
1.5833349491506053e-07
3.3333316666616693e-07
1.666668333333335e-07
1.4666641333338344e-06
6.96668240832159e-07
1.5833333658150016e-07
3.3333316666583347e-07
1.4666648666658008e-06
1.6666649999966678e-07
7.333324333341674e-07
1.6666649999966678e-07
7.333324333341674e-07
1.3933317816668231e-06
1.1727719272268985e-06
3.1958078654423494e-06
1.1727719272268985e-06
1.5979033487500003e-06
4.444442222219995e-07
4.4444466666622224e-07
2.222220000001669e-07
2.2222222222238943e-07
4.444439999998904e-07
4.4444377777811175e-07
4.444443333333341e-07
4.444441111111667e-07
2.0728819235338781e-07
2.072881923533882e-07
4.1457636977208023e-07
4.14576369772081e-07

