# vtk DataFile Version 3.0
Pressure on inflated mesh
ASCII

DATASET UNSTRUCTURED_GRID
POINTS 503 double
  0.00158492  -0.00319428  -0.04425637
  0.00525222   0.02749253   0.04574197
  0.01251319   0.03000724   0.03895397
  0.00580834   0.03026878   0.03889460
  0.00217016   0.00365172  -0.04936100
  0.01034664   0.00600084  -0.04982251
  0.00203835  -0.00218855  -0.04661494
 -0.01204211   0.02121097   0.04024929
 -0.01577707   0.01026728   0.04577915
 -0.00861224   0.01784047   0.04758847
 -0.00292054   0.02388322   0.04699902
 -0.01000152   0.00698230   0.05158603
 -0.00649423   0.01025306   0.05248953
  0.00969695  -0.02274402  -0.04210247
  0.00895876  -0.01810344  -0.04491715
  0.01537105  -0.02004724  -0.04164248
  0.01350675  -0.02541191  -0.03803516
 -0.01278696  -0.01181756   0.04844894
 -0.00774767  -0.00930795   0.05342358
 -0.01271675  -0.00843283   0.05035771
  0.00657170   0.00191953   0.05475332
  0.00440618   0.00200480   0.05522593
 -0.00117708   0.00619066   0.05473667
  0.00415848   0.00309555   0.05497157
 -0.00137048   0.00416454   0.05487493
 -0.01632821   0.01663014   0.03985412
 -0.02467434   0.00971385   0.03341977
 -0.01739228   0.00599703   0.04555435
 -0.02477273   0.00446279   0.03593319
 -0.01875967   0.00072291   0.04482691
 -0.01147583   0.00386994   0.05170084
 -0.00596543  -0.00318060   0.05550132
 -0.01337770  -0.00223392   0.05115400
 -0.00416590   0.00259708   0.05527112
  0.00279651  -0.00088400   0.05660512
  0.00356880  -0.00742425   0.05655833
  0.00917801  -0.00512737   0.05565016
  0.00862551   0.00017493   0.05500463
  0.00680675  -0.00025532   0.05498192
  0.01633780  -0.00177931   0.05691813
  0.00933977  -0.00225966   0.05585152
  0.01123695  -0.00625679   0.05569620
  0.00787674   0.00033591   0.05546880
  0.00689097   0.00044542   0.05553324
  0.00907514  -0.00095278   0.05625137
  0.00561904  -0.00041158   0.05455309
  0.00891159   0.00774794   0.05948275
  0.00428426   0.00196287   0.05627332
  0.00244685   0.01010189   0.05785441
  0.00036226   0.00301034   0.05528870
 -0.00108158   0.01743626   0.05420235
 -0.00221629   0.01019399   0.05484351
  0.00715129   0.01648496   0.05768807
  0.00449028   0.02234634   0.05292432
  0.01138828   0.02080984   0.05495875
  0.01502237   0.02419981   0.05082671
  0.01734705   0.01854471   0.05540204
  0.02091008   0.02246618   0.05022994
  0.01716933   0.02708248   0.04444613
  0.02428329   0.02543813   0.04119857
  0.01864071   0.02902719   0.03677632
  0.00481878   0.03345572   0.02950162
 -0.00742148   0.02669298   0.03780865
 -0.00100112   0.02955821   0.03796055
 -0.01020971   0.03059266   0.02709927
 -0.02306901   0.01484787   0.03166358
 -0.01984184   0.02083991   0.02973159
 -0.02967381   0.01114787   0.02615457
 -0.03091378   0.00434359   0.02784455
 -0.03078000  -0.00266840   0.02951867
 -0.02743431  -0.00910105   0.03314093
 -0.02316495  -0.01484323   0.03552845
 -0.01849581  -0.01861471   0.03797401
 -0.01238303  -0.02191470   0.04027213
 -0.00835470  -0.01497216   0.04983847
 -0.00159432  -0.01686859   0.05142385
 -0.00327002  -0.01407476   0.05285856
 -0.00585174  -0.02499771   0.04025352
  0.00304593  -0.02172749   0.04677168
  0.00248901  -0.01315331   0.05457168
  0.01097843  -0.01971388   0.04948080
  0.01473340  -0.01626858   0.05223676
  0.00966368  -0.01051127   0.05494192
  0.01629168  -0.01006503   0.05539972
  0.01044810  -0.00568390   0.05572518
  0.02111653  -0.01364998   0.05228076
  0.02231220  -0.00526762   0.05593215
  0.02978679  -0.00131046   0.05158451
  0.02311209   0.00263018   0.05678580
  0.01498782   0.00339400   0.05827073
  0.02394620   0.01400091   0.05478374
  0.01831532   0.01044133   0.05841465
  0.01341723   0.01418117   0.05860073
  0.03068121   0.01385425   0.04781605
  0.02908567   0.02090166   0.04163835
  0.02625944   0.01912038   0.04911343
  0.03312765   0.01488834   0.04015377
  0.03018764   0.02115293   0.03351931
  0.02500385   0.02674608   0.03062276
  0.03427509   0.01415580   0.02864793
  0.03089513   0.02134198   0.02545034
  0.02584511   0.02802329   0.02137181
  0.01930709   0.03295224   0.01896163
  0.01918513   0.03048574   0.02858038
 -0.00298975   0.03725813   0.01780409
 -0.00301763   0.03345166   0.02704111
 -0.01108794   0.03340399   0.02150403
 -0.01826473   0.02958493   0.02119690
 -0.01563684   0.02603767   0.02852851
 -0.02519948   0.02518176   0.01950958
 -0.02878175   0.01847725   0.02183471
 -0.03396762   0.00433979   0.02281880
 -0.03523214  -0.00399693   0.02171925
 -0.03866253  -0.01388691   0.01344580
 -0.03292372  -0.02173184   0.01665724
 -0.02535863  -0.02683085   0.02111101
 -0.01759047  -0.03024474   0.02452906
  0.00041605  -0.02626332   0.04033583
  0.01125221  -0.02420962   0.04449345
  0.01362338  -0.02686972   0.03962207
  0.01978930  -0.02207103   0.04491437
  0.01768297  -0.01908919   0.04914177
  0.02568693  -0.01588412   0.04774698
  0.03066624  -0.01031411   0.04614518
  0.02638860  -0.00911211   0.05176549
  0.03461149  -0.00518009   0.03875035
  0.03379380  -0.00071892   0.04548814
  0.03555184   0.00783508   0.03801078
  0.03332060   0.00763125   0.04624560
  0.02890122   0.00639665   0.05277995
  0.03558678   0.00089013   0.03815428
  0.03611248   0.00656265   0.02313806
  0.03493558   0.01445232   0.02019175
  0.03227007   0.02175630   0.01712461
  0.02712653   0.02888422   0.01522228
  0.01344122   0.04058279   0.00407038
  0.00415384   0.04226495   0.00415703
  0.00462348   0.03733820   0.01804136
 -0.00441622   0.04192833   0.00603939
 -0.01346647   0.03983607   0.00773397
 -0.02833541   0.02840684   0.01162285
 -0.03707802   0.01361502   0.01340586
 -0.03331068   0.02143832   0.01245099
 -0.03973068   0.00510860   0.01384827
 -0.04069237  -0.00434925   0.01336099
 -0.01106336  -0.03460134   0.02240102
 -0.00449783  -0.03808248   0.01824745
  0.00529099  -0.03071270   0.03298413
  0.00356681  -0.03705974   0.02041232
  0.01212649  -0.03256244   0.02719203
  0.01921217  -0.02942921   0.02816254
  0.02041650  -0.02544150   0.03828684
  0.02704107  -0.02499850   0.02385177
  0.02768055  -0.02075703   0.03709202
  0.02743806  -0.01809412   0.04273324
  0.03255088  -0.01194919   0.03971274
  0.03463895  -0.00847300   0.02407424
  0.03587293  -0.00136542   0.02278635
  0.03217479  -0.01668385   0.02550074
  0.03506666  -0.01039585   0.01951411
  0.03665034  -0.00167707   0.01829600
  0.03682078   0.00594450   0.01873401
  0.03922064   0.00571481   0.01050931
  0.03800039   0.01421029   0.00830718
  0.03493852   0.02256239   0.00683979
  0.03061405   0.03146948   0.00205432
  0.02252849   0.03726119   0.00282734
  0.00566758   0.04375534  -0.00563511
 -0.00414908   0.04367222  -0.00060098
 -0.01384200   0.04267300  -0.00091102
 -0.02370366   0.03790134   0.00025352
 -0.03093267   0.03098470   0.00133082
 -0.02169226   0.03435982   0.01110589
 -0.03559503   0.02289775   0.00516823
 -0.04132861   0.01540119  -0.00198571
 -0.03966977   0.01492467   0.00620779
 -0.04445010   0.00635149  -0.00116238
 -0.04258570   0.00584168   0.00725620
 -0.04550067  -0.00359517  -0.00136118
 -0.04340551  -0.00422377   0.00758595
 -0.04336796  -0.01395304   0.00140597
 -0.04160423  -0.01414586   0.00727633
 -0.03941892  -0.02347439   0.00042520
 -0.03684618  -0.02330306   0.00857933
 -0.03235561  -0.03174118   0.00182025
 -0.02331258  -0.03697037   0.00507408
 -0.02927120  -0.02999081   0.01186648
 -0.01261080  -0.03795282   0.01471417
 -0.02054477  -0.03418612   0.01531663
 -0.00470852  -0.04185848   0.00799847
  0.00390769  -0.04065939   0.01199296
  0.01250742  -0.03998735   0.01078956
  0.01996769  -0.03273859   0.01886292
  0.02780521  -0.02717629   0.01701021
  0.03304195  -0.01831876   0.01899266
  0.03897267  -0.01230661   0.00627622
  0.04023688  -0.00411252   0.00573144
  0.04098218   0.00512350   0.00186278
  0.03714140   0.02306114  -0.00273235
  0.03994900   0.01433871  -0.00320572
  0.03214439   0.03166414  -0.00488115
  0.02366983   0.03805534  -0.00441114
  0.02438225   0.03723522  -0.01318497
  0.01498201   0.04190210  -0.00660250
  0.00591594   0.04231745  -0.01684908
 -0.00351766   0.04169871  -0.02067220
 -0.00415333   0.04421362  -0.00977306
 -0.01323097   0.04120378  -0.01927167
 -0.01393971   0.04313483  -0.01031345
 -0.02405153   0.03822675  -0.01479888
 -0.02449099   0.03878368  -0.00786867
 -0.03225420   0.03164105  -0.00963809
 -0.03735739   0.02312589  -0.01137700
 -0.03717141   0.02343241  -0.00269506
 -0.04126809   0.01533401  -0.01059616
 -0.04419115   0.00668194  -0.01024650
 -0.04520240  -0.00285753  -0.01023985
 -0.04372661  -0.01238181  -0.01347991
 -0.04429216  -0.01316016  -0.00498444
 -0.04013326  -0.02148159  -0.01438051
 -0.04040979  -0.02288704  -0.00592126
 -0.03437289  -0.02999859  -0.01298644
 -0.03412873  -0.03118593  -0.00660744
 -0.02675844  -0.03655027  -0.01379330
 -0.02625520  -0.03761635  -0.00750158
 -0.02500810  -0.03780813  -0.00149697
 -0.00599403  -0.04404680  -0.00270126
  0.00401951  -0.04361398   0.00061001
  0.01289500  -0.04265068  -0.00357290
  0.01271792  -0.04192264   0.00384161
  0.02210311  -0.03754280   0.00706504
  0.02949796  -0.03027843   0.00877743
  0.03622952  -0.02265091   0.00401928
  0.04012398  -0.01360156  -0.00124290
  0.04118930  -0.00459472  -0.00184491
  0.04051183  -0.00590813  -0.01150953
  0.03966037   0.00173401  -0.01799618
  0.04146049   0.00436667  -0.00813189
  0.03774673   0.02150199  -0.01293026
  0.03992727   0.01278235  -0.01275971
  0.03286871   0.03043119  -0.01378338
  0.03141678   0.02643335  -0.02447367
  0.02356601   0.03385000  -0.02400014
  0.01454160   0.03611220  -0.02672272
  0.01485503   0.04008032  -0.01791494
  0.00574603   0.03877087  -0.02563815
 -0.00311386   0.03673286  -0.02959590
 -0.01148858   0.03594472  -0.02939014
 -0.02035520   0.03332988  -0.02854439
 -0.02282848   0.03661549  -0.02097772
 -0.02921882   0.02848620  -0.02483956
 -0.03125561   0.03017933  -0.01894730
 -0.03638875   0.02260114  -0.01755312
[...]
POINT_DATA 503
SCALARS pressure double 1
LOOKUP_TABLE default
         -0.45072607
         -0.45072607
         -0.45072607
         -0.45072607
         -0.45072607
         -0.45072607
         -0.45072607
         -0.45072607
         -0.45072607
         -0.45072607
         -0.45072607
         -0.45072607
         -0.45072607
         -0.45072607
         -0.45072607
         -0.45072607
         -0.45072607
         -0.45072607
         -0.45072607
         -0.45072607
         -0.45072607
         -0.45072607
         -0.45072607
         -0.45072607
         -0.45072607
         -0.45072607
         -0.45072607
         -0.45072607
         -0.45072607
         -0.45072607
         -0.45072607
         -0.45072607
         -0.45072607
         -0.45072607
         -0.45072607
         -0.45072607
         -0.45072607
         -0.45072607
         -0.45072607
         -0.45072607
         -0.45072607
         -0.45072607
         -0.45072607
         -0.45072607
         -0.45072607
         -0.45072607
         -0.45072607
         -0.45072607
         -0.45072607
         -0.45072607
         -0.45072607
         -0.45072607
         -0.45072607
         -0.45072607
         -0.45072607
         -0.45072607
         -0.45072607
         -0.45072607
         -0.45072607
         -0.45072607
         -0.45072607
         -0.45072607
         -0.45072607
         -0.45072607
         -0.45072607
         -0.45072607
         -0.45072607
         -0.45072607
         -0.45072607
         -0.45072607
         -0.45072607
         -0.45072607
         -0.45072607
         -0.45072607
         -0.45072607
         -0.45072607
         -0.45072607
         -0.45072607
         -0.45072607
         -0.45072607
         -0.45072607
         -0.45072607
         -0.45072607
         -0.45072607
         -0.45072607
         -0.45072607
         -0.45072607
         -0.45072607
         -0.45072607
         -0.45072607
         -0.45072607
         -0.45072607
         -0.45072607
         -0.45072607
         -0.45072607
         -0.45072607
         -0.45072607
         -0.45072607
         -0.45072607
         -0.45072607
         -0.45072607
         -0.45072607
         -0.45072607
         -0.45072607
         -0.45072607
         -0.45072607
         -0.45072607
         -0.45072607
         -0.45072607
         -0.45072607
         -0.45072607
         -0.45072607
         -0.45072607
         -0.45072607
         -0.45072607
         -0.45072607
         -0.45072607
         -0.45072607
         -0.45072607
         -0.45072607
         -0.45072607
         -0.45072607
         -0.45072607
         -0.45072607
         -0.45072607
         -0.45072607
         -0.45072607
         -0.45072607
         -0.45072607
         -0.45072607
         -0.45072607
         -0.45072607
         -0.45072607
         -0.45072607
         -0.45072607
         -0.45072607
         -0.45072607
         -0.45072607
         -0.45072607
         -0.45072607
         -0.45072607
         -0.45072607
         -0.45072607
         -0.45072607
         -0.45072607
         -0.45072607
         -0.45072607
         -0.45072607
         -0.45072607
         -0.45072607
         -0.45072607
         -0.45072607
         -0.45072607
         -0.45072607
         -0.45072607
         -0.45072607
         -0.45072607
         -0.45072607
         -0.45072607
         -0.45072607
         -0.45072607
         -0.45072607
         -0.45072607
         -0.45072607
         -0.45072607
         -0.45072607
         -0.45072607
         -0.45072607
         -0.45072607
         -0.45072607
         -0.45072607
         -0.45072607
         -0.45072607
         -0.45072607
         -0.45072607
         -0.45072607
         -0.45072607
         -0.45072607
         -0.45072607
         -0.45072607
         -0.45072607
         -0.45072607
         -0.45072607
         -0.45072607
         -0.45072607
         -0.45072607
         -0.45072607
         -0.45072607
         -0.45072607
         -0.45072607
         -0.45072607
         -0.45072607
         -0.45072607
         -0.45072607
         -0.45072607
         -0.45072607
         -0.45072607
         -0.45072607
         -0.45072607
         -0.45072607
         -0.45072607
         -0.45072607
         -0.45072607
         -0.45072607
         -0.45072607
         -0.45072607
         -0.45072607
         -0.45072607
         -0.45072607
         -0.45072607
         -0.45072607
         -0.45072607
         -0.45072607
         -0.45072607
         -0.45072607
         -0.45072607
         -0.45072607
         -0.45072607
         -0.45072607
         -0.45072607
         -0.45072607
         -0.45072607
         -0.45072607
         -0.45072607
         -0.45072607
         -0.45072607
         -0.45072607
         -0.45072607
         -0.45072607
         -0.45072607
         -0.45072607
         -0.45072607
         -0.45072607
         -0.45072607
         -0.45072607
         -0.45072607
         -0.45072607
         -0.45072607
         -0.45072607
         -0.45072607
         -0.45072607
         -0.45072607
         -0.45072607
         -0.45072607
         -0.45072607
         -0.45072607
         -0.45072607
         -0.45072607
         -0.45072607
         -0.45072607
         -0.45072607
         -0.45072607
         -0.45072607
         -0.45072607
         -0.45072607
         -0.45072607
         -0.45072607
         -0.45072607
         -0.45072607
         -0.45072607
         -0.45072607
         -0.45072607
         -0.45072607
         -0.45072607
         -0.45072607
         -0.45072607
         -0.45072607
         -0.45072607
         -0.45072607
         -0.45072607
         -0.45072607
         -0.45072607
         -0.45072607
         -0.45072607
         -0.45072607
         -0.45072607
         -0.45072607
         -0.45072607
         -0.45072607
         -0.45072607
         -0.45072607
         -0.45072607
         -0.45072607
         -0.45072607
         -0.45072607
         -0.45072607
         -0.45072607
         -0.45072607
         -0.45072607
         -0.45072607
         -0.45072607
         -0.45072607
         -0.45072607
         -0.45072607
         -0.45072607
         -0.45072607
         -0.45072607
         -0.45072607
         -0.45072607
         -0.45072607
         -0.45072607
         -0.45072607
         -0.45072607
         -0.45072607
         -0.45072607
         -0.45072607
         -0.45072607
         -0.45072607
         -0.45072607
         -0.45072607
         -0.45072607
         -0.45072607
         -0.45072607
         -0.45072607
         -0.45072607
         -0.45072607
         -0.45072607
         -0.45072607
         -0.45072607
         -0.45072607
         -0.45072607
         -0.45072607
         -0.45072607
         -0.45072607
         -0.45072607
         -0.45072607
         -0.45072607
         -0.45072607
         -0.45072607
         -0.45072607
         -0.45072607
         -0.45072607
         -0.45072607
         -0.45072607
         -0.45072607
         -0.45072607
         -0.45072607
         -0.45072607
         -0.45072607
         -0.45072607
         -0.45072607
         -0.45072607
         -0.45072607
         -0.45072607
         -0.45072607
         -0.45072607
         -0.45072607
         -0.45072607
         -0.45072607
         -0.45072607
         -0.45072607
         -0.45072607
         -0.45072607
         -0.45072607
         -0.45072607
         -0.45072607
         -0.45072607
         -0.45072607
         -0.45072607
         -0.45072607
         -0.45072607
         -0.45072607
         -0.45072607
         -0.45072607
         -0.45072607
         -0.45072607
         -0.45072607
         -0.45072607
         -0.45072607
         -0.45072607
         -0.45072607
         -0.45072607
         -0.45072607
         -0.45072607
         -0.45072607
         -0.45072607
         -0.45072607
         -0.45072607
         -0.45072607
         -0.45072607
         -0.45072607
         -0.45072607
         -0.45072607
         -0.45072607
         -0.45072607
         -0.45072607
         -0.45072607
         -0.45072607
         -0.45072607
         -0.45072607
         -0.45072607
         -0.45072607
         -0.45072607
         -0.45072607
         -0.45072607
         -0.45072607
         -0.45072607
         -0.45072607
         -0.45072607
         -0.45072607
         -0.45072607
         -0.45072607
          0.42713507
          0.56484400
          1.00000000
          0.52254558
          0.52233651
          0.88369335
          0.72475868
          0.52852965
          0.41238649
          0.79791918
          0.63427557
          0.94417158
          0.30636276
          0.42281599
          0.53360102
          0.62482379
          0.63247335
          0.27601013
          0.23619684
          0.21940358
          0.46269302
          0.31341601
          0.71411789
          0.60155265
          0.40697672
          0.44859700
          0.59457941
          0.25260030
          0.52625400
          0.66065843
          0.41831804
          0.49056127
          0.42645481
          0.51599133
          0.36399833
          0.20999970
          0.30531673
          0.28259544
          0.53989386
          0.51735171
          0.21436880
          0.76612153
          0.35471993
          0.57044564
          0.35904441
          0.37131598
          0.27224174
          0.23746008
          0.52522911
          0.36767676
          0.40224474
          0.22997900
          0.19711089
          0.20899554
          0.21574390
          0.20888982
          0.44596750
          0.14352688
          0.40922328
          0.42996608
          0.42496806
          0.23666888
          0.52146481
          0.11552443
          0.55670109
          0.17313607
          0.44827627
          0.39961564
          0.22010429
          0.28150512
          0.10121739
          0.35525394
          0.16661008
          0.23547676
          0.15406165
          0.20672819
          0.02252321
          0.01303378
          0.01366841
          0.01098114
          0.02825292
          0.02752606
          0.01651588
          0.02119071
          0.00559924
          0.01695732
          0.02395441
          0.03340881
          0.03463623
          0.03770982
          0.03828268
          0.03115235
          0.02937515
          0.03423451
          0.03519744
          0.03628541
          0.04779679
          0.04399799
          0.03268542
          0.03117345
          0.03973799

